LAMMPS (23 Jun 2022 - Update 4)
# 3d vashishta

units		metal
atom_style	atomic

boundary        p p p


lattice		custom 1              a1 5.5392  0. 0.              a2 0.0 5.5392  0.0            a3 0.0 0.0 5.5392             basis 0.   0.   0.            basis 0.5  0.5  0.            basis 0.5  0.   0.5            basis 0.   0.5  0.5            basis 0.5  0.   0.             basis 0.   0.5  0.             basis 0.   0.   0.5             basis 0.5  0.5  0.5
Lattice spacing in x,y,z = 5.5392 5.5392 5.5392


region		caixa block 0 20 0 20 0 20
create_box	2 caixa
Created orthogonal box = (0 0 0) to (110.784 110.784 110.784)
  1 by 2 by 5 MPI processor grid
create_atoms	1 region caixa basis 1 1 basis 2 1 basis 3 1 basis 4 1             	  basis 5 2 basis 6 2 basis 7 2 basis 8 2
Created 64000 atoms
  using lattice units in orthogonal box = (0 0 0) to (110.784 110.784 110.784)
  create_atoms CPU = 0.002 seconds

mass		1 137.33
mass		2 15.9994

#velocity	all create 2100. 473204 dist gaussian
velocity        all create 100. 473204 dist gaussian

group		Ba type 1
32000 atoms in group Ba
group		O type 2
32000 atoms in group O

pair_style	table linear 50000
pair_coeff	1 1 Pot_BaO Vash_11
WARNING: 23463 of 50000 force values in table Vash_11 are inconsistent with -dE/dr.
WARNING:  Should only be flagged at inflection points (../pair_table.cpp:463)
WARNING: 43814 of 50000 distance values in table 1e-06 with relative error
WARNING:  over Vash_11 to re-computed values (../pair_table.cpp:471)
pair_coeff	1 2 Pot_BaO Vash_12
WARNING: 23576 of 50000 force values in table Vash_12 are inconsistent with -dE/dr.
WARNING:  Should only be flagged at inflection points (../pair_table.cpp:463)
WARNING: 43814 of 50000 distance values in table 1e-06 with relative error
WARNING:  over Vash_12 to re-computed values (../pair_table.cpp:471)
pair_coeff	2 2 Pot_BaO Vash_22
WARNING: 23794 of 50000 force values in table Vash_22 are inconsistent with -dE/dr.
WARNING:  Should only be flagged at inflection points (../pair_table.cpp:463)
WARNING: 43814 of 50000 distance values in table 1e-06 with relative error
WARNING:  over Vash_22 to re-computed values (../pair_table.cpp:471)

timestep	0.001   #1.0 fs

thermo		500         # intervalo para mostrar output instantaneos.

neighbor	2.0 bin
neigh_modify	every 8 delay 0 check yes

restart		1000 BaO-nvt.T2100

#fix		ensemble all nve
#fix		ensemble all nvt temp 300 300 0.1 iso 0.0 0.0 0.5 drag 2.0

#fix    ensemble all nvt temp 2100 2100 0.1

#fix    ensemble all nvt temp 3500 3500 0.05

# mudanca no ensemble NPT
fix ensemble all npt temp 100.0 100.0 1.0 iso 0.0 0.0 1000.0

run		10000000
Generated 0 of 1 mixed pair_coeff terms from geometric mixing rule
Neighbor list info ...
  update every 8 steps, delay 0 steps, check yes
  max neighbors/atom: 2000, page size: 100000
  master list distance cutoff = 11
  ghost atom cutoff = 11
  binsize = 5.5, bins = 21 21 21
  1 neighbor lists, perpetual/occasional/extra = 1 0 0
  (1) pair table, perpetual
      attributes: half, newton on
      pair build: half/bin/atomonly/newton
      stencil: half/bin/3d
      bin: standard
Per MPI rank memory allocation (min/avg/max) = 8.384 | 9.056 | 9.533 Mbytes
   Step          Temp          E_pair         E_mol          TotEng         Press          Volume    
         0   100           -243821.04      0             -242993.79      337.34086      1359662.5    
       500   52.906098     -243408.57      0             -242970.91      2262.0289      1359664.3    
      1000   50.786232     -243367.1       0             -242946.97      2510.7964      1359669.8    
      1500   54.643627     -243371.39      0             -242919.35      2510.3449      1359679.1    
      2000   56.136658     -243353.43      0             -242889.04      2583.8415      1359692.4    
      2500   58.253        -243338.45      0             -242856.55      2682.6942      1359709.6    
      3000   60.007911     -243318.62      0             -242822.2       2785.957       1359731.2    
      3500   62.620301     -243304.19      0             -242786.16      2873.4168      1359757      
      4000   64.699072     -243283.82      0             -242748.59      2968.6434      1359787.4    
      4500   66.874935     -243262.93      0             -242709.71      3071.0318      1359822.4    
      5000   69.340824     -243243.39      0             -242669.76      3177.8551      1359862.3    
      5500   72.094882     -243225.24      0             -242628.83      3272.2493      1359907.2    
      6000   74.838288     -243206.41      0             -242587.3       3359.0267      1359957.2    
      6500   77.92498      -243189.86      0             -242545.22      3427.9917      1360012.5    
      7000   80.1306       -243165.8       0             -242502.92      3565.6477      1360073.2    
      7500   82.161379     -243140.47      0             -242460.79      3661.3885      1360139.6    
      8000   84.601618     -243118.88      0             -242419.01      3766.2824      1360211.7    
      8500   88.294687     -243108.39      0             -242377.97      3797.095       1360289.6    
      9000   89.338457     -243077.32      0             -242338.26      3923.8702      1360373.6    
      9500   91.857856     -243060         0             -242300.11      3988.0727      1360463.7    
     10000   94.313073     -243044.37      0             -242264.16      4030.0607      1360560.1    
     10500   96.311831     -243027.68      0             -242230.94      4102.1186      1360662.7    
     11000   97.971822     -243011.74      0             -242201.26      4122.1928      1360771.7    
     11500   99.783392     -243001.27      0             -242175.81      4134.5382      1360887      
     12000   101.31513     -242993.79      0             -242155.66      4115.8849      1361008.8    
     12500   102.01465     -242985.97      0             -242142.06      4107.4483      1361136.8    
     13000   102.68912     -242985.83      0             -242136.33      4008.3494      1361271.2    
     13500   102.0168      -242983.24      0             -242139.3       3955.8121      1361411.7    
     14000   101.62501     -242990.64      0             -242149.95      3829.665       1361558.2    
     14500   100.03137     -242992.17      0             -242164.66      3739.1776      1361710.4    
     15000   99.88203      -243005.21      0             -242178.93      3574.7008      1361868.2    
     15500   99.067858     -243009.54      0             -242189.99      3457.1302      1362031.2    
     16000   98.5406       -243010.96      0             -242195.78      3365.3795      1362199.1    
     16500   98.347397     -243008.83      0             -242195.25      3260.5752      1362371.9    
     17000   98.418834     -243002.75      0             -242188.58      3209.4915      1362549.1    
     17500   99.428486     -243000.17      0             -242177.65      3127.4857      1362730.7    
     18000   99.832314     -242991.47      0             -242165.6       3091.3072      1362916.5    
     18500   100.89686     -242989.87      0             -242155.2       3008.913       1363106.2    
     19000   101.25152     -242986.27      0             -242148.66      2922.3409      1363299.8    
     19500   101.85216     -242989.73      0             -242147.15      2798.8939      1363496.8    
     20000   100.85721     -242985.43      0             -242151.08      2701.0632      1363697.1    
     20500   100.19374     -242987.94      0             -242159.08      2565.7456      1363900.4    
     21000   100.1476      -242997.37      0             -242168.9       2406.8959      1364106.3    
     21500   99.11036      -242997.77      0             -242177.88      2284.4563      1364314.5    
     22000   99.137782     -243004.07      0             -242183.95      2127.365       1364524.7    
     22500   98.733837     -243002.59      0             -242185.81      2019.2388      1364736.5    
     23000   99.135145     -243002.93      0             -242182.83      1914.3391      1364949.7    
     23500   99.141689     -242996.02      0             -242175.87      1830.4588      1365163.9    
     24000   99.960705     -242993.63      0             -242166.7       1740.6941      1365378.8    
     24500   100.78792     -242991.27      0             -242157.5       1640.6741      1365594.3    
     25000   100.92632     -242985.36      0             -242150.44      1557.4856      1365810.1    
     25500   100.69258     -242979.97      0             -242146.99      1459.7896      1366025.9    
     26000   100.78627     -242981.45      0             -242147.69      1354.3945      1366241.4    
     26500   100.73792     -242985.68      0             -242152.32      1219.256       1366456.3    
     27000   100.60986     -242991.73      0             -242159.44      1061.0986      1366670.4    
     27500   99.991718     -242994.26      0             -242167.08      914.03185      1366883.3    
     28000   99.768195     -242998.5       0             -242173.17      771.92475      1367094.7    
     28500   99.191767     -242996.83      0             -242176.26      678.83271      1367304.3    
     29000   99.190474     -242996.01      0             -242175.46      579.01767      1367512      
     29500   98.960076     -242989.59      0             -242170.94      497.52614      1367717.3    
     30000   99.325273     -242985.38      0             -242163.71      411.42905      1367920.2    
     30500   99.954621     -242982.44      0             -242155.56      296.86006      1368120.4    
     31000   100.72779     -242981.58      0             -242148.31      236.5772       1368317.8    
     31500   100.69372     -242976.48      0             -242143.49      126.39136      1368512.2    
     32000   100.68839     -242975.15      0             -242142.2       38.860842      1368703.5    
     32500   100.94384     -242979.4       0             -242144.34     -74.400746      1368891.5    
     33000   100.60262     -242981.68      0             -242149.44     -207.16224      1369076      
     33500   99.865388     -242982.02      0             -242155.88     -290.14625      1369256.8    
     34000   99.433568     -242984.44      0             -242161.88     -405.68612      1369433.8    
     34500   98.94731      -242984.37      0             -242165.83     -499.18705      1369606.9    
     35000   98.785979     -242984.03      0             -242166.82     -589.90066      1369775.8    
     35500   99.219376     -242985.14      0             -242164.35     -685.44714      1369940.6    
     36000   99.224038     -242979.84      0             -242159.01     -740.82594      1370101.1    
     36500   99.788579     -242977.52      0             -242152.01     -808.31833      1370257.3    
     37000   99.996408     -242972.22      0             -242144.99     -869.32832      1370409.1    
     37500   100.66843     -242972.33      0             -242139.55     -942.8782       1370556.6    
     38000   100.51449     -242968.39      0             -242136.88     -1005.5028      1370699.6    
     38500   101.1084      -242973.72      0             -242137.3      -1095.483       1370838.2    
     39000   100.60812     -242972.98      0             -242140.69     -1165.6275      1370972.4    
     39500   99.892495     -242972.39      0             -242146.03     -1244.7443      1371102      
     40000   99.415022     -242974.21      0             -242151.8      -1315.7264      1371227.1    
     40500   99.684186     -242981         0             -242156.36     -1416.5454      1371347.5    
     41000   98.891347     -242976.8       0             -242158.72     -1452.4874      1371463.4    
     41500   99.526404     -242981.36      0             -242158.03     -1545.7618      1371574.6    
     42000   99.691976     -242979.24      0             -242154.54     -1586.6128      1371681.3    
     42500   99.958392     -242975.77      0             -242148.86     -1636.341       1371783.3    
     43000   100.25502     -242971.87      0             -242142.51     -1654.8496      1371880.8    
     43500   100.69565     -242969.82      0             -242136.82     -1687.1884      1371973.8    
     44000   100.69208     -242966.12      0             -242133.14     -1707.5428      1372062.3    
     44500   101.18751     -242969.32      0             -242132.24     -1765.3552      1372146.5    
     45000   100.16625     -242962.85      0             -242134.22     -1776.6155      1372226.3    
     45500   100.23708     -242967.72      0             -242138.51     -1854.7826      1372301.8    
     46000   100.07361     -242971.73      0             -242143.87     -1901.8335      1372372.9    
     46500   99.544833     -242972.4       0             -242148.92     -1942.7751      1372439.7    
     47000   99.510377     -242975.47      0             -242152.27     -2005.7944      1372502.2    
     47500   99.158517     -242973.5       0             -242153.21     -2036.1475      1372560.4    
     48000   99.229538     -242972.27      0             -242151.4      -2047.159       1372614.3    
     48500   99.731586     -242972.24      0             -242147.21     -2057.1196      1372664.1    
     49000   99.562583     -242965.4       0             -242141.77     -2055.9505      1372709.7    
     49500   100.13552     -242964.61      0             -242136.24     -2078.4266      1372751.3    
     50000   100.38035     -242962.44      0             -242132.04     -2088.9213      1372788.9    
     50500   100.63488     -242962.57      0             -242130.06     -2097.3103      1372822.5    
     51000   100.72763     -242964.09      0             -242130.82     -2115.4154      1372852.3    
     51500   100.48813     -242965.33      0             -242134.04     -2144.8347      1372878.2    
     52000   100.0938      -242966.86      0             -242138.83     -2169.5629      1372900.4    
     52500   99.580762     -242967.73      0             -242143.95     -2182.8308      1372918.8    
     53000   99.517278     -242971.4       0             -242148.14     -2225.2196      1372933.3    
     53500   99.088432     -242970.12      0             -242150.41     -2221.5866      1372944.2    
     54000   99.363969     -242972.16      0             -242150.17     -2228.5444      1372951.4    
     54500   99.675377     -242972.04      0             -242147.48     -2228.7126      1372954.8    
     55000   100.00179     -242970.37      0             -242143.1      -2208.2649      1372954.8    
     55500   100.14711     -242966.52      0             -242138.05     -2180.1354      1372951.2    
     56000   100.65074     -242966.29      0             -242133.66     -2203.4869      1372944.1    
     56500   100.86774     -242965.35      0             -242130.92     -2153.0462      1372933.8    
     57000   100.42068     -242961.25      0             -242130.52     -2148.0813      1372920.1    
     57500   100.275       -242962.18      0             -242132.66     -2146.6388      1372903.1    
     58000   100.2813      -242966.26      0             -242136.68     -2168.4802      1372883      
     58500   100.06497     -242969.41      0             -242141.63     -2170.3432      1372859.7    
     59000   99.395433     -242968.53      0             -242146.28     -2162.6907      1372833.2    
     59500   99.210737     -242970.28      0             -242149.55     -2141.2408      1372803.6    
     60000   98.897967     -242968.82      0             -242150.68     -2136.5827      1372771      
     60500   99.480849     -242972.36      0             -242149.41     -2110.694       1372735.3    
     61000   99.707061     -242971         0             -242146.17     -2105.131       1372696.6    
     61500   99.880661     -242968.08      0             -242141.82     -2052.5624      1372655      
     62000   100.10103     -242965.51      0             -242137.42     -2009.7102      1372610.7    
     62500   100.16479     -242962.79      0             -242134.18     -1966.6601      1372563.6    
     63000   100.70019     -242965.88      0             -242132.84     -1960.6548      1372513.9    
     63500   100.72321     -242967.13      0             -242133.89     -1942.2279      1372461.6    
     64000   100.17039     -242965.81      0             -242137.14     -1894.3168      1372406.8    
     64500   100.40815     -242972.3       0             -242141.67     -1906.6429      1372349.6    
     65000   99.779186     -242971.88      0             -242146.45     -1863.1665      1372289.9    
     65500   99.505206     -242973.53      0             -242150.37     -1833.886       1372227.8    
     66000   99.319086     -242974.24      0             -242152.63     -1815.8846      1372163.4    
     66500   99.77656      -242977.99      0             -242152.59     -1794.4743      1372096.8    
     67000   99.590142     -242974.38      0             -242150.52     -1741.8013      1372028      
     67500   99.860532     -242972.96      0             -242146.86     -1694.6298      1371957      
     68000   99.887965     -242969.01      0             -242142.68     -1630.5631      1371884.1    
     68500   100.17859     -242967.86      0             -242139.13     -1574.3285      1371809.2    
     69000   100.3318      -242967.14      0             -242137.14     -1543.1462      1371732.5    
     69500   100.58332     -242969.32      0             -242137.25     -1514.896       1371654.1    
     70000   100.65        -242972.16      0             -242139.53     -1467.8506      1371574      
     70500   100.27427     -242973.01      0             -242143.49     -1427.4372      1371492.2    
     71000   100.40926     -242978.79      0             -242148.16     -1432.0586      1371409      
     71500   99.781028     -242977.87      0             -242152.43     -1390.2248      1371324.2    
     72000   99.51949      -242978.73      0             -242155.45     -1365.2074      1371238      
     72500   99.149433     -242976.72      0             -242156.51     -1286.3126      1371150.4    
     73000   99.366797     -242977.44      0             -242155.42     -1248.9241      1371061.6    
     73500   99.655396     -242977.03      0             -242152.63     -1206.4129      1370971.5    
     74000   99.788656     -242974.35      0             -242148.85     -1126.5296      1370880.4    
     74500   100.12099     -242973.38      0             -242145.12     -1053.7353      1370788.2    
     75000   100.12643     -242970.78      0             -242142.48     -1005.0279      1370695.2    
     75500   100.18673     -242970.37      0             -242141.58     -946.29591      1370601.3    
     76000   100.69686     -242975.8       0             -242142.79     -931.41722      1370506.8    
     76500   100.07218     -242973.79      0             -242145.94     -862.68723      1370411.6    
     77000   100.5166      -242981.74      0             -242150.22     -843.53036      1370315.8    
     77500   100.00926     -242982.01      0             -242154.68     -798.78578      1370219.6    
     78000   99.951388     -242985.14      0             -242158.29     -770.79546      1370122.9    
     78500   99.393065     -242982.47      0             -242160.24     -713.49068      1370025.9    
     79000   99.354888     -242982.22      0             -242160.3      -653.98331      1369928.5    
     79500   99.696663     -242983.12      0             -242158.38     -610.03754      1369831      
     80000   100.29823     -242984.85      0             -242155.13     -576.56338      1369733.3    
     80500   100.09852     -242979.48      0             -242151.41     -492.80316      1369635.6    
     81000   100.3864      -242978.74      0             -242148.29     -413.11897      1369538      
     81500   100.56882     -242978.5       0             -242146.54     -369.22214      1369440.6    
     82000   100.24444     -242975.98      0             -242146.71     -293.81868      1369343.4    
     82500   100.27475     -242978.35      0             -242148.82     -286.93959      1369246.6    
     83000   100.37965     -242982.87      0             -242152.47     -257.4886       1369150.2    
     83500   100.01611     -242984.14      0             -242156.75     -207.03732      1369054.4    
     84000   99.848195     -242986.62      0             -242160.62     -164.24044      1368959      
     84500   99.614956     -242987.38      0             -242163.31     -124.52604      1368864.2    
     85000   99.255207     -242985.32      0             -242164.23     -39.608647      1368770.1    
     85500   99.680434     -242987.73      0             -242163.12     -29.115129      1368676.7    
     86000   99.816992     -242986.2       0             -242160.46      41.354529      1368584.1    
     86500   99.640731     -242981.27      0             -242156.99      108.68905      1368492.4    
     87000   99.969091     -242980.52      0             -242153.52      169.83826      1368401.7    
     87500   100.34158     -242981.16      0             -242151.08      205.26435      1368312      
     88000   100.24347     -242979.64      0             -242150.37      289.61414      1368223.5    
     88500   100.19922     -242980.39      0             -242151.49      309.94939      1368136.2    
     89000   100.68012     -242987.31      0             -242154.43      329.74962      1368050.1    
     89500   100.26923     -242987.8       0             -242158.32      371.10198      1367965.3    
     90000   99.598692     -242986.25      0             -242162.32      426.30052      1367881.9    
     90500   99.125044     -242985.5       0             -242165.48      475.1688       1367799.9    
     91000   99.436449     -242989.79      0             -242167.2       480.0648       1367719.3    
     91500   99.654145     -242991.31      0             -242166.92      513.39658      1367640.2    
     92000   99.528372     -242988.36      0             -242165         582.37616      1367562.6    
     92500   99.942491     -242988.56      0             -242161.79      609.77428      1367486.6    
     93000   100.43313     -242989.02      0             -242158.19      655.58172      1367412.3    
     93500   99.862383     -242981.33      0             -242155.21      744.92413      1367339.7    
     94000   100.62687     -242985.97      0             -242153.53      761.69035      1367268.9    
     94500   100.44801     -242984.65      0             -242153.7       810.53777      1367199.9    
     95000   100.22809     -242984.78      0             -242155.65      843.24152      1367132.8    
     95500   99.832695     -242984.81      0             -242158.94      879.13106      1367067.6    
     96000   100.12017     -242991.03      0             -242162.78      874.84942      1367004.4    
     96500   99.654541     -242990.63      0             -242166.24      904.91282      1366943.1    
     97000   99.909044     -242995.11      0             -242168.61      917.32054      1366883.7    
     97500   99.709586     -242994.06      0             -242169.21      945.80496      1366826.3    
     98000   99.416586     -242990.46      0             -242168.03      1004.2959      1366770.9    
     98500   99.75065      -242990.6       0             -242165.42      1036.7121      1366717.6    
     99000   99.865739     -242988.17      0             -242162.03      1062.321       1366666.3    
     99500   100.71298     -242991.84      0             -242158.69      1076.9381      1366617.2    
    100000   100.62458     -242988.82      0             -242156.4       1105.1398      1366570.3    
    100500   100.34443     -242985.72      0             -242155.62      1170.2065      1366525.5    
    101000   100.56123     -242988.45      0             -242156.56      1182.5176      1366482.9    
    101500   100.32676     -242989.04      0             -242159.09      1196.9103      1366442.5    
    102000   100.25754     -242991.89      0             -242162.51      1191.2989      1366404.4    
    102500   100.0105      -242993.35      0             -242166.01      1208.8415      1366368.5    
    103000   99.786173     -242994.3       0             -242168.82      1213.8724      1366334.8    
    103500   99.536081     -242993.62      0             -242170.21      1243.7709      1366303.3    
    104000   99.773702     -242995.27      0             -242169.89      1239.727       1366274      
    104500   99.99319      -242995.13      0             -242167.94      1260.6606      1366247      
    105000   100.12821     -242993.23      0             -242164.92      1293.9496      1366222.1    
    105500   100.07629     -242989.41      0             -242161.53      1334.5175      1366199.6    
    106000   100.29179     -242988.32      0             -242158.66      1339.6566      1366179.3    
    106500   100.4693      -242988.2       0             -242157.07      1344.0411      1366161.2    
    107000   100.37309     -242987.41      0             -242157.07      1367.3873      1366145.4    
    107500   100.33256     -242988.62      0             -242158.62      1348.1973      1366131.9    
    108000   100.72743     -242994.77      0             -242161.5       1333.2298      1366120.7    
    108500   99.877511     -242991.14      0             -242164.9       1349.7005      1366111.6    
    109000   99.75496      -242993.14      0             -242167.92      1345.0866      1366104.8    
    109500   99.461334     -242992.7       0             -242169.9       1356.2471      1366100.2    
    110000   99.863403     -242996.41      0             -242170.29      1327.4905      1366097.7    
    110500   100.00114     -242996.33      0             -242169.07      1334.9489      1366097.3    
    111000   99.696168     -242991.32      0             -242166.58      1368.6495      1366099.1    
    111500   100.28848     -242992.97      0             -242163.33      1346.9012      1366103      
    112000   100.25872     -242989.56      0             -242160.16      1375.8331      1366109      
    112500   100.42451     -242988.72      0             -242157.95      1384.4757      1366117.1    
    113000   100.82162     -242991.18      0             -242157.13      1345.6523      1366127.4    
    113500   100.41747     -242988.62      0             -242157.92      1353.2258      1366139.7    
    114000   99.885556     -242986.47      0             -242160.17      1335.4204      1366154.1    
    114500   100.4343      -242994.05      0             -242163.21      1315.0908      1366170.5    
    115000   100.00394     -242993.62      0             -242166.34      1309.9784      1366188.8    
    115500   99.708873     -242993.57      0             -242168.73      1280.1827      1366209.1    
    116000   99.949945     -242996.68      0             -242169.84      1261.4417      1366231.3    
    116500   99.695597     -242994.11      0             -242169.37      1260.9424      1366255.3    
    117000   99.890148     -242993.77      0             -242167.43      1261.5018      1366281.2    
    117500   100.43514     -242995.27      0             -242164.42      1232.6568      1366308.8    
    118000   100.21703     -242990.19      0             -242161.15      1238.879       1366338.3    
    118500   99.960518     -242985.35      0             -242158.43      1243.0094      1366369.5    
    119000   100.17635     -242985.57      0             -242156.86      1226.2529      1366402.4    
    119500   100.15526     -242985.37      0             -242156.83      1212.8471      1366437      
    120000   100.16977     -242987.01      0             -242158.35      1188.8848      1366473.3    
    120500   100.11982     -242989.16      0             -242160.92      1143.0593      1366511.2    
    121000   99.960759     -242990.92      0             -242163.99      1111.9342      1366550.7    
    121500   99.842035     -242992.59      0             -242166.64      1085.1813      1366591.6    
    122000   99.719383     -242993.27      0             -242168.34      1072.3288      1366634      
    122500   99.678997     -242993.21      0             -242168.61      1043.5557      1366677.8    
    123000   99.790666     -242992.8       0             -242167.28      1026.2968      1366722.9    
    123500   100.38078     -242995.11      0             -242164.7       964.24647      1366769.3    
    124000   99.893816     -242987.94      0             -242161.57      1004.5232      1366816.9    
    124500   100.07935     -242986.39      0             -242158.48      971.53212      1366865.8    
    125000   100.74856     -242989.74      0             -242156.29      927.30163      1366915.9    
    125500   100.32134     -242985.37      0             -242155.45      903.05158      1366967.1    
    126000   100.21089     -242985.17      0             -242156.17      891.26389      1367019.4    
    126500   99.93179      -242984.87      0             -242158.18      863.67174      1367072.7    
    127000   100.10991     -242989.1       0             -242160.94      821.37432      1367127.1    
    127500   99.92468      -242990.39      0             -242163.76      784.08597      1367182.4    
    128000   99.637399     -242990.16      0             -242165.91      752.37616      1367238.5    
    128500   99.308254     -242988.34      0             -242166.81      715.82823      1367295.4    
    129000   99.785946     -242991.65      0             -242166.17      686.22878      1367353      
    129500   99.686022     -242988.81      0             -242164.16      663.69961      1367411.2    
    130000   99.86128      -242987.35      0             -242161.25      653.58533      1367470.2    
    130500   100.53479     -242989.8       0             -242158.13      612.70318      1367529.7    
    131000   100.07137     -242983.32      0             -242155.48      587.62528      1367589.7    
    131500   100.4185      -242984.66      0             -242153.94      567.95801      1367650.3    
    132000   100.18416     -242982.71      0             -242153.94      541.13066      1367711.3    
    132500   100.31036     -242985.05      0             -242155.23      496.70144      1367772.7    
    133000   100.35306     -242987.77      0             -242157.6       454.34651      1367834.5    
    133500   99.648256     -242984.73      0             -242160.39      423.76907      1367896.6    
    134000   99.898237     -242989.25      0             -242162.84      369.77641      1367958.9    
    134500   99.584152     -242988.1       0             -242164.29      333.10458      1368021.3    
    135000   99.495402     -242987.45      0             -242164.37      303.12851      1368083.8    
    135500   99.384486     -242985.14      0             -242162.98      271.31812      1368146.3    
    136000   100.11765     -242988.67      0             -242160.44      243.09542      1368208.8    
    136500   100.20015     -242986.25      0             -242157.34      231.89167      1368271.2    
    137000   100.18777     -242983.18      0             -242154.37      205.39745      1368333.5    
    137500   100.14672     -242980.79      0             -242152.32      197.27202      1368395.7    
    138000   100.50803     -242982.99      0             -242151.53      134.81967      1368457.7    
    138500   100.43541     -242983.1       0             -242152.25      101.09485      1368519.5    
    139000   100.34192     -242984.22      0             -242154.14      72.069139      1368581      
    139500   99.805565     -242982.45      0             -242156.81      38.540053      1368642.1    
    140000   99.881948     -242985.73      0             -242159.46     -1.6965055      1368702.9    
    140500   99.850913     -242987.4       0             -242161.38     -42.579902      1368763.2    
    141000   99.6752       -242986.68      0             -242162.11     -74.646542      1368822.9    
    141500   99.549938     -242984.92      0             -242161.4      -97.079355      1368882      
    142000   99.747817     -242984.49      0             -242159.32     -133.15734      1368940.6    
    142500   99.944969     -242983.22      0             -242156.42     -165.67715      1368998.4    
    143000   100.58251     -242985.37      0             -242153.3      -214.57001      1369055.6    
    143500   100.27337     -242980.22      0             -242150.71     -204.95755      1369112.1    
    144000   100.28126     -242978.91      0             -242149.33     -223.67141      1369167.8    
    144500   100.34593     -242979.48      0             -242149.36     -249.84002      1369222.7    
    145000   100.43422     -242981.58      0             -242150.74     -310.92716      1369276.8    
    145500   100.15639     -242981.75      0             -242153.2      -331.29553      1369330      
    146000   99.921847     -242982.55      0             -242155.95     -355.45742      1369382.3    
    146500   99.379846     -242980.4       0             -242158.28     -397.11064      1369433.5    
    147000   99.251247     -242980.7       0             -242159.64     -393.93437      1369483.8    
    147500   99.850115     -242985.64      0             -242159.63     -458.54535      1369533      
    148000   99.712731     -242983.02      0             -242158.14     -476.32486      1369581.1    
    148500   99.918245     -242982.21      0             -242155.64     -506.88138      1369628.1    
    149000   99.980654     -242979.7       0             -242152.61     -511.2797       1369674      
    149500   100.14751     -242978.27      0             -242149.8      -529.22952      1369718.7    
    150000   100.45935     -242978.93      0             -242147.88     -529.20491      1369762.2    
    150500   100.42666     -242978.02      0             -242147.24     -580.55105      1369804.6    
    151000   100.23231     -242977.19      0             -242148.02     -587.88939      1369845.7    
    151500   100.06431     -242977.77      0             -242149.99     -609.52838      1369885.5    
    152000   99.854989     -242978.64      0             -242152.59     -633.75313      1369924.1    
    152500   99.753279     -242980.37      0             -242155.16     -675.70421      1369961.4    
    153000   99.771269     -242982.36      0             -242157        -697.66394      1369997.3    
    153500   100.02663     -242985.14      0             -242157.66     -745.93199      1370031.8    
    154000   99.912979     -242983.55      0             -242157.01     -740.81807      1370064.9    
    154500   100.24107     -242984.3       0             -242155.05     -762.09863      1370096.6    
    155000   99.689129     -242976.95      0             -242152.27     -735.10893      1370126.9    
    155500   99.676995     -242974         0             -242149.42     -729.97254      1370155.8    
    156000   100.60059     -242979.32      0             -242147.1      -773.98389      1370183.2    
    156500   100.71164     -242979.04      0             -242145.9      -790.24147      1370209.2    
    157000   100.41839     -242976.8       0             -242146.08     -795.55694      1370233.8    
    157500   99.828009     -242973.48      0             -242147.66     -784.55254      1370256.9    
    158000   99.997312     -242977.33      0             -242150.1      -803.22582      1370278.6    
    158500   99.938635     -242979.59      0             -242152.85     -826.33387      1370298.9    
    159000   99.401793     -242977.44      0             -242155.14     -840.94003      1370317.6    
    159500   99.883163     -242982.72      0             -242156.43     -865.46564      1370334.9    
    160000   99.761079     -242981.73      0             -242156.45     -868.47111      1370350.6    
    160500   99.635791     -242979.26      0             -242155.02     -865.37268      1370364.9    
    161000   99.462766     -242975.51      0             -242152.7      -857.19029      1370377.6    
    161500   99.804792     -242975.6       0             -242149.96     -854.7788       1370388.9    
    162000   100.2365      -242976.58      0             -242147.38     -886.64904      1370398.7    
    162500   100.47526     -242976.9       0             -242145.71     -864.85684      1370407      
    163000   100.40107     -242975.91      0             -242145.34     -859.44062      1370413.8    
    163500   100.28223     -242975.96      0             -242146.37     -873.24922      1370419.3    
    164000   99.870392     -242974.55      0             -242148.37     -874.92024      1370423.3    
    164500   100.38174     -242981.45      0             -242151.04     -915.66933      1370425.8    
    165000   99.795997     -242979.19      0             -242153.62     -902.81303      1370426.9    
    165500   99.947447     -242982.32      0             -242155.5      -922.03414      1370426.5    
    166000   100.08594     -242984.11      0             -242156.15     -929.8776       1370424.7    
    166500   99.523182     -242978.81      0             -242155.5      -896.59881      1370421.4    
    167000   99.783959     -242979.12      0             -242153.65     -902.93797      1370416.7    
    167500   99.791758     -242976.62      0             -242151.09     -891.66316      1370410.5    
    168000   99.765499     -242973.82      0             -242148.5      -864.48266      1370403      
    168500   100.14398     -242974.92      0             -242146.48     -870.14936      1370394.2    
    169000   100.19728     -242974.39      0             -242145.51     -860.31439      1370384      
    169500   100.53294     -242977.55      0             -242145.88     -876.75521      1370372.6    
    170000   100.08251     -242975.45      0             -242147.52     -851.14085      1370359.8    
    170500   99.746379     -242975.22      0             -242150.07     -840.45298      1370345.8    
    171000   99.61797      -242976.86      0             -242152.76     -839.29182      1370330.5    
    171500   99.568246     -242978.74      0             -242155.06     -848.67356      1370314      
    172000   99.999274     -242983.58      0             -242156.33     -874.82035      1370296.2    
    172500   99.526872     -242979.77      0             -242156.43     -833.94378      1370277.2    
    173000   99.561806     -242978.85      0             -242155.22     -808.65347      1370257      
    173500   99.556302     -242976.68      0             -242153.1      -786.03885      1370235.7    
    174000   100.35958     -242980.76      0             -242150.53     -797.77292      1370213.2    
    174500   100.2736      -242977.8       0             -242148.28     -765.383        1370189.6    
    175000   100.38605     -242977.3       0             -242146.86     -764.40665      1370165      
    175500   100.20834     -242975.55      0             -242146.57     -722.59908      1370139.3    
    176000   100.12733     -242975.93      0             -242147.62     -713.23306      1370112.7    
    176500   99.982443     -242976.88      0             -242149.78     -701.71627      1370085.1    
    177000   99.857473     -242978.48      0             -242152.41     -709.68293      1370056.5    
    177500   99.695337     -242979.72      0             -242154.99     -684.67786      1370027.1    
    178000   99.590633     -242980.67      0             -242156.8      -676.59249      1369996.7    
    178500   99.995434     -242984.74      0             -242157.53     -691.93759      1369965.4    
    179000   99.638775     -242981.29      0             -242157.03     -657.09425      1369933.3    
    179500   99.610472     -242979.38      0             -242155.35     -622.30378      1369900.4    
    180000   100.29173     -242982.68      0             -242153.02     -617.31249      1369866.7    
    180500   100.14972     -242979.19      0             -242150.7      -578.45678      1369832.3    
    181000   99.924041     -242975.44      0             -242148.82     -561.12868      1369797.2    
    181500   100.16785     -242976.65      0             -242148.01     -544.48159      1369761.4    
    182000   100.16346     -242977.1       0             -242148.5      -524.94623      1369725      
    182500   100.13029     -242978.5       0             -242150.17     -501.7599       1369688.1    
    183000   100.01669     -242980.01      0             -242152.62     -504.56996      1369650.6    
    183500   100.09952     -242983.29      0             -242155.22     -486.97649      1369612.5    
    184000   99.723495     -242982.4       0             -242157.44     -463.107        1369574      
    184500   99.909701     -242985.21      0             -242158.7      -467.30281      1369535      
    185000   99.922614     -242985.46      0             -242158.84     -435.19133      1369495.6    
    185500   99.745495     -242982.97      0             -242157.82     -399.42981      1369455.7    
    186000   99.415623     -242978.28      0             -242155.87     -347.88464      1369415.5    
    186500   100.03411     -242981.07      0             -242153.54     -356.30934      1369375      
    187000   100.17168     -242980.12      0             -242151.45     -309.57674      1369334.2    
    187500   100.10137     -242978.23      0             -242150.14     -298.9212       1369293.1    
    188000   99.774185     -242975.36      0             -242149.97     -253.98703      1369251.9    
    188500   100.12643     -242979.25      0             -242150.95     -242.80651      1369210.6    
    189000   100.21107     -242982.02      0             -242153.02     -251.57536      1369169.2    
    189500   100.31771     -242985.43      0             -242155.55     -232.37583      1369127.6    
    190000   99.67906      -242982.65      0             -242158.06     -209.25688      1369086      
    190500   99.170732     -242980.27      0             -242159.88     -170.41395      1369044.4    
    191000   99.63562      -242984.91      0             -242160.67     -164.12965      1369002.7    
    191500   99.773157     -242985.53      0             -242160.16     -164.75657      1368961      
    192000   99.606705     -242982.6       0             -242158.6      -111.39341      1368919.5    
    192500   99.677308     -242980.98      0             -242156.4      -88.697184      1368878      
    193000   100.16346     -242982.73      0             -242154.12     -67.159818      1368836.6    
    193500   100.39202     -242982.85      0             -242152.35     -44.296413      1368795.4    
    194000   100.49517     -242982.87      0             -242151.52     -40.687408      1368754.5    
    194500   100.51946     -242983.56      0             -242152.01      2.3765681      1368713.8    
    195000   100.34782     -242983.68      0             -242153.55      23.341238      1368673.4    
    195500   100.38736     -242986.38      0             -242155.92      17.45606       1368633.3    
    196000   99.642108     -242982.86      0             -242158.57      56.740069      1368593.6    
    196500   99.636757     -242985.02      0             -242160.77      78.402122      1368554.2    
    197000   99.997342     -242989.3       0             -242162.07      71.099843      1368515.2    
    197500   99.498018     -242985.26      0             -242162.16      117.1742       1368476.6    
    198000   99.911078     -242987.65      0             -242161.13      127.40605      1368438.4    
    198500   99.896116     -242985.53      0             -242159.14      147.71769      1368400.7    
    199000   100.18504     -242985.51      0             -242156.73      157.80645      1368363.5    
    199500   100.18155     -242983.35      0             -242154.6       216.95213      1368326.9    
    200000   100.43557     -242984.1       0             -242153.24      227.96914      1368290.9    
    200500   100.56459     -242984.95      0             -242153.03      244.73458      1368255.4    
    201000   100.32409     -242983.98      0             -242154.05      251.02919      1368220.6    
    201500   100.57852     -242988.16      0             -242156.12      266.38313      1368186.5    
    202000   99.780925     -242984.09      0             -242158.65      297.46822      1368153      
    202500   99.55803      -242984.73      0             -242161.14      288.03891      1368120.3    
    203000   99.907614     -242989.39      0             -242162.9       299.39651      1368088.2    
    203500   99.603408     -242987.58      0             -242163.61      313.65275      1368056.8    
    204000   99.252029     -242984.17      0             -242163.1       355.92528      1368026.2    
    204500   99.753653     -242986.68      0             -242161.47      346.86845      1367996.3    
    205000   100.49013     -242990.55      0             -242159.24      346.78642      1367967.2    
    205500   99.932621     -242983.57      0             -242156.88      408.35076      1367938.9    
    206000   100.42558     -242985.85      0             -242155.08      404.9097       1367911.4    
    206500   100.23265     -242983.44      0             -242154.26      441.91587      1367884.8    
    207000   100.73302     -242987.98      0             -242154.67      433.66566      1367859.1    
    207500   100.95492     -242991.29      0             -242156.14      436.51093      1367834.2    
    208000   100.05996     -242986.24      0             -242158.49      466.66621      1367810.3    
    208500   100.25754     -242990.36      0             -242160.98      453.59008      1367787.3    
    209000   99.739555     -242988.2       0             -242163.1       463.9559       1367765.2    
    209500   99.845208     -242990.31      0             -242164.34      459.43917      1367744      
    210000   99.251661     -242985.4       0             -242164.33      532.82378      1367723.7    
    210500   99.807837     -242988.84      0             -242163.18      492.58332      1367704.3    
    211000   100.06243     -242988.93      0             -242161.16      527.14526      1367685.9    
    211500   100.05644     -242986.45      0             -242158.73      525.51911      1367668.4    
    212000   100.09072     -242984.6       0             -242156.59      556.03908      1367651.8    
    212500   99.96551      -242982.24      0             -242155.27      577.11351      1367636.3    
    213000   100.25939     -242984.38      0             -242154.98      576.8748       1367621.8    
    213500   99.958047     -242982.85      0             -242155.95      593.99504      1367608.3    
    214000   99.792428     -242983.45      0             -242157.91      580.52372      1367595.8    
    214500   99.911115     -242986.78      0             -242160.27      596.90905      1367584.3    
    215000   99.820083     -242988.36      0             -242162.6       579.6717       1367573.7    
    215500   99.779619     -242989.7       0             -242164.27      558.61703      1367564.2    
    216000   100.06755     -242992.67      0             -242164.85      556.31329      1367555.7    
    216500   99.66141      -242988.76      0             -242164.3       593.44292      1367548.1    
    217000   99.897203     -242989.08      0             -242162.68      598.66597      1367541.5    
    217500   100.30835     -242990.26      0             -242160.46      586.19843      1367535.9    
    218000   100.72045     -242991.38      0             -242158.17      611.7154       1367531.2    
    218500   100.33097     -242986.32      0             -242156.33      628.59264      1367527.6    
    219000   100.1444      -242983.92      0             -242155.48      625.44212      1367525      
    219500   100.0258      -242983.19      0             -242155.73      638.00392      1367523.4    
    220000   100.24898     -242986.47      0             -242157.16      604.98194      1367522.8    
    220500   100.11567     -242987.52      0             -242159.31      602.2653       1367523.2    
    221000   99.722456     -242986.55      0             -242161.59      601.83533      1367524.6    
    221500   99.210715     -242984.19      0             -242163.47      625.64078      1367526.9    
    222000   99.822542     -242990.43      0             -242164.65      599.90543      1367530.1    
    222500   99.513865     -242987.83      0             -242164.6       608.94592      1367534.3    
    223000   99.860997     -242989.54      0             -242163.44      599.82886      1367539.3    
    223500   100.00535     -242988.76      0             -242161.46      590.45402      1367545.3    
    224000   100.26063     -242988.61      0             -242159.2       596.01945      1367552.2    
    224500   99.949752     -242983.93      0             -242157.09      615.88892      1367560      
    225000   100.65034     -242988.41      0             -242155.78      599.65661      1367568.8    
    225500   100.51922     -242987.01      0             -242155.46      581.67893      1367578.4    
    226000   100.34791     -242986.49      0             -242156.36      565.05293      1367588.9    
    226500   99.983646     -242985.27      0             -242158.16      578.8492       1367600.3    
    227000   99.720396     -242985.22      0             -242160.28      572.27271      1367612.4    
    227500   100.03392     -242989.91      0             -242162.38      539.04533      1367625.5    
    228000   99.582601     -242987.66      0             -242163.86      541.42856      1367639.3    
    228500   99.557956     -242987.84      0             -242164.25      525.10962      1367653.8    
    229000   99.730521     -242988.64      0             -242163.61      507.95236      1367669.1    
    229500   100.38574     -242992.4       0             -242161.95      509.15787      1367685.1    
    230000   100.03396     -242987.3       0             -242159.77      524.83412      1367701.9    
    230500   100.37116     -242987.87      0             -242157.55      495.79549      1367719.3    
    231000   100.01948     -242983.23      0             -242155.81      522.25094      1367737.5    
    231500   100.28696     -242984.6       0             -242154.97      497.4413       1367756.3    
    232000   100.4946      -242986.63      0             -242155.29      498.64571      1367775.8    
    232500   100.12135     -242984.87      0             -242156.61      495.43776      1367796      
    233000   100.34183     -242988.71      0             -242158.63      441.79175      1367816.9    
    233500   100.47773     -242991.92      0             -242160.72      408.58107      1367838.3    
    234000   100.05053     -242990.23      0             -242162.56      417.76593      1367860.3    
    234500   99.683719     -242988.16      0             -242163.52      421.55763      1367882.8    
    235000   99.309327     -242984.88      0             -242163.34      407.35905      1367905.8    
    235500   99.77542      -242987.5       0             -242162.1       388.69203      1367929.3    
    236000   99.989786     -242987.29      0             -242160.12      391.00013      1367953.3    
    236500   100.18353     -242986.52      0             -242157.75      353.2343       1367977.7    
    237000   99.938955     -242982.46      0             -242155.71      379.06371      1368002.5    
    237500   100.3875      -242984.92      0             -242154.46      349.38131      1368027.8    
    238000   100.37034     -242984.55      0             -242154.23      338.0805       1368053.5    
    238500   100.09179     -242983.17      0             -242155.16      322.2536       1368079.6    
    239000   100.14006     -242985.31      0             -242156.9       314.18819      1368106      
    239500   99.797853     -242984.6       0             -242159.02      291.73205      1368132.8    
    240000   99.849951     -242987         0             -242160.99      263.29826      1368159.8    
    240500   99.77768      -242987.7       0             -242162.29      239.14424      1368187.1    
    241000   99.769982     -242987.94      0             -242162.59      230.01267      1368214.7    
    241500   99.628181     -242985.99      0             -242161.82      227.58448      1368242.4    
    242000   99.796442     -242985.66      0             -242160.09      223.05721      1368270.3    
    242500   100.23154     -242986.99      0             -242157.82      168.50444      1368298.3    
    243000   100.04554     -242983.26      0             -242155.63      185.98412      1368326.5    
    243500   99.948749     -242980.78      0             -242153.96      186.72248      1368354.9    
    244000   100.13035     -242981.57      0             -242153.24      172.2961       1368383.3    
    244500   100.24668     -242982.89      0             -242153.6       158.4019       1368411.8    
    245000   99.93982      -242981.73      0             -242154.97      156.69526      1368440.5    
    245500   100.0632      -242984.71      0             -242156.94      112.45355      1368469.1    
    246000   99.850378     -242985.03      0             -242159.01      89.585236      1368497.7    
    246500   99.74636      -242985.83      0             -242160.68      70.141718      1368526.4    
    247000   99.717262     -242986.49      0             -242161.57      65.618657      1368554.9    
    247500   99.730419     -242986.35      0             -242161.32      41.281099      1368583.4    
    248000   99.82974      -242985.88      0             -242160.04      37.338635      1368611.7    
    248500   100.16455     -242986.58      0             -242157.96      9.2315268      1368640      
    249000   99.838498     -242981.58      0             -242155.66      27.512072      1368668      
    249500   99.858256     -242979.74      0             -242153.67      11.731811      1368696      
    250000   100.33686     -242982.41      0             -242152.37     -2.141962       1368723.7    
    250500   99.993572     -242979.33      0             -242152.13     -4.5493405      1368751.3    
    251000   100.32767     -242982.92      0             -242152.96     -38.19293       1368778.7    
    251500   100.1783      -242983.5       0             -242154.77     -40.126185      1368805.8    
    252000   100.1341      -242985.28      0             -242156.92     -80.494771      1368832.7    
    252500   99.676028     -242983.41      0             -242158.84     -89.302942      1368859.3    
    253000   99.74124      -242985.28      0             -242160.17     -117.305        1368885.6    
    253500   99.798188     -242986.02      0             -242160.44     -134.99725      1368911.5    
    254000   99.873429     -242985.8       0             -242159.59     -134.53823      1368937.1    
    254500   99.648689     -242982.11      0             -242157.76     -142.41196      1368962.2    
    255000   99.883896     -242981.83      0             -242155.54     -156.85413      1368987      
    255500   100.12732     -242981.63      0             -242153.33     -155.29647      1369011.4    
    256000   100.3637      -242982.01      0             -242151.75     -172.9702       1369035.3    
    256500   100.09042     -242979.1       0             -242151.1      -172.81213      1369058.9    
    257000   100.18376     -242980.27      0             -242151.5      -192.57282      1369082      
    257500   100.38319     -242983.36      0             -242152.94     -226.78813      1369104.6    
    258000   100.1486      -242983.46      0             -242154.98     -236.51576      1369126.8    
    258500   99.962209     -242983.98      0             -242157.04     -236.29057      1369148.5    
    259000   99.672773     -242983.2       0             -242158.66     -266.14938      1369169.6    
    259500   100.27587     -242988.97      0             -242159.43     -293.58838      1369190.2    
    260000   99.674042     -242983.69      0             -242159.13     -287.7447       1369210.2    
    260500   99.709475     -242982.63      0             -242157.78     -286.45979      1369229.7    
    261000   99.671373     -242980.27      0             -242155.74     -294.56531      1369248.6    
    261500   100.17101     -242982.2       0             -242153.53     -312.20614      1369266.9    
    262000   100.30254     -242981.36      0             -242151.6      -305.00389      1369284.6    
    262500   100.40172     -242981.09      0             -242150.52     -321.46229      1369301.8    
    263000   100.18703     -242979.28      0             -242150.48     -316.94207      1369318.3    
    263500   100.14517     -242979.92      0             -242151.46     -328.96952      1369334.2    
    264000   99.992554     -242980.42      0             -242153.23     -333.25933      1369349.6    
    264500   99.958101     -242982.29      0             -242155.38     -359.91599      1369364.2    
    265000   99.419171     -242979.74      0             -242157.3      -348.84424      1369378.3    
    265500   100.1612      -242987.08      0             -242158.49     -394.99346      1369391.6    
    266000   99.830593     -242984.51      0             -242158.65     -378.22727      1369404.3    
    266500   99.637265     -242982.07      0             -242157.82     -390.01701      1369416.3    
    267000   99.82582      -242981.84      0             -242156.03     -399.35439      1369427.6    
    267500   100.24747     -242983.13      0             -242153.84     -386.48979      1369438.2    
    268000   99.78882      -242977.28      0             -242151.78     -388.24943      1369448.2    
    268500   99.848864     -242976.33      0             -242150.32     -372.27227      1369457.4    
    269000   100.72129     -242983.05      0             -242149.83     -405.46067      1369466      
    269500   100.33069     -242980.42      0             -242150.43     -395.06188      1369473.9    
    270000   99.875821     -242978.23      0             -242152.01     -403.55181      1369481.2    
    270500   99.744518     -242979.38      0             -242154.25     -405.41295      1369487.7    
    271000   99.722178     -242981.24      0             -242156.28     -410.25915      1369493.6    
    271500   100.02301     -242985.19      0             -242157.75     -456.97467      1369498.7    
    272000   99.849652     -242984.3       0             -242158.29     -441.88517      1369503.1    
    272500   99.587911     -242981.69      0             -242157.85     -434.17251      1369506.8    
    273000   99.624292     -242980.21      0             -242156.07     -410.60005      1369509.8    
    273500   100.18286     -242982         0             -242153.23     -432.90778      1369512.1    
    274000   100.13282     -242979.04      0             -242150.69     -412.97828      1369513.7    
    274500   100.17641     -242978.25      0             -242149.54     -398.29494      1369514.7    
    275000   100.37871     -242979.94      0             -242149.56     -423.20763      1369514.9    
    275500   100.15776     -242979.21      0             -242150.65     -409.48976      1369514.5    
    276000   99.605363     -242976.52      0             -242152.53     -392.93598      1369513.5    
    276500   100.38251     -242984.95      0             -242154.53     -446.55063      1369511.8    
    277000   100.16972     -242984.48      0             -242155.82     -432.2892       1369509.4    
    277500   100.1047      -242984.14      0             -242156.02     -433.27798      1369506.4    
    278000   99.944861     -242982.56      0             -242155.76     -439.87917      1369502.7    
    278500   99.875255     -242981.45      0             -242155.23     -417.32916      1369498.4    
    279000   99.587301     -242978.29      0             -242154.45     -396.48165      1369493.4    
    279500   100.17992     -242982.15      0             -242153.41     -418.1083       1369487.7    
    280000   100.13088     -242980.59      0             -242152.26     -402.98553      1369481.5    
    280500   100.4813      -242982.49      0             -242151.25     -408.33138      1369474.6    
    281000   100.20525     -242979.44      0             -242150.49     -384.8598       1369467.2    
    281500   100.3158      -242980.24      0             -242150.37     -384.79573      1369459.1    
    282000   100.40645     -242982.1       0             -242151.49     -406.13196      1369450.5    
    282500   99.966652     -242981.17      0             -242154.19     -391.70263      1369441.4    
    283000   99.748614     -242982.35      0             -242157.18     -396.15868      1369431.7    
    283500   100.42662     -242989.72      0             -242158.94     -428.58765      1369421.4    
    284000   99.394855     -242981.59      0             -242159.35     -370.26327      1369410.6    
    284500   99.92953      -242985.1       0             -242158.43     -381.75192      1369399.2    
    285000   99.837753     -242981.99      0             -242156.08     -361.36243      1369387.3    
    285500   99.953944     -242979.68      0             -242152.81     -354.76655      1369374.8    
    286000   100.58404     -242982.63      0             -242150.55     -348.00206      1369361.9    
    286500   99.926389     -242976.82      0             -242150.18     -304.69745      1369348.5    
    287000   100.08373     -242978.73      0             -242150.78     -331.80061      1369334.7    
    287500   99.923715     -242978.41      0             -242151.79     -311.56827      1369320.5    
    288000   99.937394     -242980.01      0             -242153.27     -307.16433      1369305.8    
    288500   100.23731     -242984.1       0             -242154.88     -315.37086      1369290.7    
    289000   100.17755     -242985.06      0             -242156.34     -315.47728      1369275.3    
    289500   99.859326     -242983.57      0             -242157.48     -316.97794      1369259.4    
    290000   99.680295     -242982.91      0             -242158.3      -283.50471      1369243.1    
    290500   99.803065     -242984.27      0             -242158.64     -305.52445      1369226.5    
    291000   99.930702     -242984.7       0             -242158.02     -278.75182      1369209.5    
    291500   99.867619     -242982.15      0             -242155.99     -264.98224      1369192.1    
    292000   100.17109     -242981.97      0             -242153.3      -252.79361      1369174.4    
    292500   100.3067      -242981.03      0             -242151.24     -234.923        1369156.5    
    293000   100.35812     -242980.54      0             -242150.33     -225.72217      1369138.3    
    293500   100.1647      -242979.21      0             -242150.59     -208.18237      1369119.8    
    294000   100.3181      -242982.21      0             -242152.33     -199.68194      1369101.2    
    294500   99.96076      -242982.42      0             -242155.5      -201.62282      1369082.3    
    295000   99.75818      -242983.52      0             -242158.27     -192.82641      1369063.2    
    295500   99.767548     -242984.75      0             -242159.42     -183.65347      1369043.9    
    296000   99.676949     -242983.9       0             -242159.32     -179.75063      1369024.4    
    296500   100.24945     -242987.85      0             -242158.53     -203.98152      1369004.8    
    297000   99.969476     -242984.37      0             -242157.37     -165.0324       1368985      
    297500   100.14648     -242984.65      0             -242156.19     -155.12746      1368965      
    298000   99.534822     -242978.69      0             -242155.29     -119.82159      1368944.9    
    298500   100.2268      -242983.85      0             -242154.72     -130.06496      1368924.7    
    299000   100.15521     -242983.11      0             -242154.57     -125.168        1368904.5    
    299500   100.31891     -242984.69      0             -242154.8      -92.964164      1368884.2    
    300000   100.44656     -242986.01      0             -242155.06     -107.91246      1368863.9    
    300500   99.980269     -242982.48      0             -242155.39     -68.789946      1368843.5    
    301000   100.081       -242983.64      0             -242155.72     -60.150065      1368823.1    
    301500   100.23413     -242985.26      0             -242156.07     -63.936597      1368802.8    
    302000   99.84997      -242982.57      0             -242156.56     -37.522855      1368782.4    
    302500   99.798793     -242982.73      0             -242157.14     -30.519907      1368762.1    
    303000   100.28217     -242987.6       0             -242158.02     -26.705129      1368741.9    
    303500   99.797502     -242985.22      0             -242159.64     -28.795187      1368721.7    
    304000   99.849653     -242987.59      0             -242161.59     -30.123427      1368701.6    
    304500   99.469823     -242985.77      0             -242162.91     -15.460185      1368681.7    
    305000   99.694637     -242987.56      0             -242162.83     -25.004334      1368661.8    
    305500   99.622219     -242985.09      0             -242160.96      9.3414812      1368642      
    306000   100.15457     -242986.04      0             -242157.51      21.378691      1368622.3    
    306500   100.07759     -242982.72      0             -242154.82      71.046461      1368602.9    
    307000   100.4974      -242985.06      0             -242153.69      51.29684       1368583.6    
    307500   100.24013     -242982.86      0             -242153.62      62.094038      1368564.5    
    308000   100.21279     -242983.46      0             -242154.45      84.618571      1368545.7    
    308500   100.10065     -242983.98      0             -242155.89      80.884559      1368527      
    309000   99.511043     -242981.09      0             -242157.88      112.07629      1368508.7    
    309500   99.726398     -242985.19      0             -242160.2       100.76382      1368490.6    
    310000   99.788023     -242988.16      0             -242162.66      101.06284      1368472.7    
    310500   99.541186     -242988.97      0             -242165.51      96.787103      1368455.1    
    311000   99.282016     -242990.39      0             -242169.08      98.262245      1368437.7    
    311500   99.088842     -242991.28      0             -242171.56      96.649891      1368420.6    
    312000   99.47256      -242993.81      0             -242170.92      107.96913      1368403.8    
    312500   99.831918     -242991.85      0             -242165.99      120.26923      1368387.2    
    313000   99.779557     -242987.75      0             -242162.32      172.29464      1368370.9    
    313500   99.52209      -242983.62      0             -242160.33      189.00396      1368355      
    314000   100.05907     -242986.03      0             -242158.29      175.92066      1368339.4    
    314500   100.04789     -242984.04      0             -242156.39      205.73528      1368324.2    
    315000   100.48254     -242986.09      0             -242154.84      209.23661      1368309.5    
    315500   100.43706     -242984.9       0             -242154.03      220.89262      1368295.1    
    316000   100.57697     -242986.21      0             -242154.18      216.28624      1368281.2    
    316500   100.26192     -242984.9       0             -242155.48      220.91301      1368267.7    
    317000   99.907547     -242984.52      0             -242158.03      222.90068      1368254.6    
    317500   99.816054     -242986.62      0             -242160.89      238.66267      1368242      
    318000   99.914932     -242989.21      0             -242162.66      211.38515      1368229.8    
    318500   100.14587     -242991.49      0             -242163.03      233.14398      1368218      
    319000   100.11033     -242990.36      0             -242162.2       220.49548      1368206.7    
    319500   99.622519     -242984.58      0             -242160.45      252.70256      1368195.8    
    320000   99.780265     -242983.71      0             -242158.28      284.58599      1368185.4    
    320500   99.905715     -242983.25      0             -242156.78      279.22661      1368175.5    
    321000   100.14283     -242984.82      0             -242156.39      272.55253      1368166.1    
    321500   100.25799     -242986         0             -242156.62      266.44731      1368157.1    
    322000   100.26493     -242986.56      0             -242157.11      269.16105      1368148.7    
    322500   100.16858     -242986.54      0             -242157.89      275.33248      1368140.7    
    323000   99.94975      -242985.79      0             -242158.95      282.58245      1368133.3    
    323500   100.16144     -242988.66      0             -242160.08      273.08298      1368126.3    
    324000   99.966302     -242988.16      0             -242161.18      271.50889      1368119.9    
    324500   99.606185     -242986.09      0             -242162.1       280.77071      1368113.9    
    325000   100.10865     -242990.64      0             -242162.49      273.02136      1368108.5    
    325500   100.46807     -242993.01      0             -242161.89      286.57795      1368103.5    
    326000   100.01081     -242987.02      0             -242159.68      290.25605      1368099      
    326500   100.02996     -242984.11      0             -242156.61      306.61282      1368095      
    327000   100.18905     -242983.16      0             -242154.34      335.44455      1368091.6    
    327500   100.24343     -242982.82      0             -242153.55      340.59979      1368088.6    
    328000   100.58851     -242986.12      0             -242154         326.19316      1368086.3    
    328500   100.52208     -242987.39      0             -242155.82      310.96379      1368084.4    
    329000   99.916814     -242985.52      0             -242158.96      322.49516      1368083.1    
    329500   99.903939     -242988.36      0             -242161.9       307.76369      1368082.3    
    330000   99.685922     -242987.57      0             -242162.92      300.89923      1368082      
    330500   99.304125     -242984.09      0             -242162.6       316.22656      1368082.1    
    331000   99.519577     -242984.94      0             -242161.66      321.04123      1368082.8    
    331500   99.707361     -242985.21      0             -242160.38      311.37839      1368084      
    332000   99.883253     -242985.07      0             -242158.78      306.70693      1368085.6    
    332500   99.622638     -242981.4       0             -242157.27      320.3689       1368087.7    
    333000   100.03827     -242983.61      0             -242156.04      319.62765      1368090.3    
    333500   100.11566     -242983.41      0             -242155.2       303.57931      1368093.4    
    334000   100.02127     -242982.19      0             -242154.76      333.04092      1368097      
    334500   100.09828     -242983.27      0             -242155.21      312.38373      1368101.1    
    335000   99.925013     -242983.94      0             -242157.31      327.93241      1368105.7    
    335500   100.20915     -242989.12      0             -242160.14      297.41434      1368110.7    
    336000   99.958842     -242989.23      0             -242162.32      272.44001      1368116.2    
    336500   100.10285     -242991.44      0             -242163.34      261.20841      1368122.1    
    337000   99.491416     -242986.17      0             -242163.12      280.23936      1368128.4    
    337500   99.838452     -242987.33      0             -242161.41      271.57084      1368135.1    
    338000   100.31921     -242988.36      0             -242158.46      273.25261      1368142.2    
    338500   100.48942     -242986.91      0             -242155.61      276.68249      1368149.7    
    339000   100.28149     -242983.92      0             -242154.34      273.21388      1368157.6    
    339500   100.19006     -242983.25      0             -242154.42      286.81377      1368166      
    340000   100.29678     -242984.91      0             -242155.2       267.61608      1368174.7    
    340500   100.22376     -242985.41      0             -242156.3       243.05333      1368183.8    
    341000   100.24627     -242986.76      0             -242157.47      254.28789      1368193.3    
    341500   100.29296     -242988.03      0             -242158.36      235.7148       1368203.2    
    342000   100.13697     -242987.3       0             -242158.92      243.85558      1368213.4    
    342500   99.904193     -242985.56      0             -242159.1       220.45685      1368223.9    
    343000   99.556773     -242982.56      0             -242158.98      262.75905      1368234.8    
    343500   99.818834     -242984.53      0             -242158.78      238.51647      1368246      
    344000   99.743762     -242983.65      0             -242158.52      223.77457      1368257.5    
    344500   100.19679     -242987.16      0             -242158.28      206.45132      1368269.2    
    345000   100.12698     -242986.34      0             -242158.04      192.61331      1368281.3    
    345500   99.705677     -242982.74      0             -242157.92      221.18205      1368293.6    
    346000   99.811842     -242983.47      0             -242157.77      205.67065      1368306.2    
    346500   100.2999      -242987.37      0             -242157.64      188.4059       1368319      
    347000   100.40498     -242988.2       0             -242157.59      180.34455      1368332.1    
    347500   99.786046     -242982.98      0             -242157.5       166.39365      1368345.3    
    348000   99.994727     -242984.42      0             -242157.21      158.51977      1368358.8    
    348500   100.63086     -242989.29      0             -242156.82      150.07565      1368372.5    
    349000   99.794346     -242982.12      0             -242156.57      158.64909      1368386.4    
    349500   100.01898     -242983.96      0             -242156.55      148.52003      1368400.4    
    350000   99.825054     -242982.54      0             -242156.74      160.03157      1368414.7    
    350500   99.988742     -242984.41      0             -242157.25      137.19217      1368429.1    
    351000   100.52108     -242989.59      0             -242158.02      110.18965      1368443.6    
    351500   99.777738     -242984.33      0             -242158.92      121.13248      1368458.2    
    352000   99.733979     -242984.82      0             -242159.77      127.86461      1368473      
    352500   99.714409     -242985.23      0             -242160.34      100.07071      1368487.9    
    353000   99.926864     -242987.01      0             -242160.37      85.70536       1368502.8    
    353500   100.0637      -242987.14      0             -242159.36      88.323091      1368517.8    
    354000   99.785448     -242982.49      0             -242157.01      111.01732      1368532.8    
    354500   100.1334      -242982.54      0             -242154.18      67.748395      1368547.9    
    355000   99.85766      -242978.36      0             -242152.28      102.68061      1368563      
    355500   100.16342     -242980.33      0             -242151.72      65.662249      1368578.2    
    356000   100.39197     -242983.02      0             -242152.52      64.701884      1368593.5    
    356500   100.05682     -242982.88      0             -242155.16      53.135439      1368608.7    
    357000   99.847249     -242985.15      0             -242159.16      35.360434      1368624      
    357500   99.24761      -242982.37      0             -242161.34      39.392334      1368639.2    
    358000   99.446032     -242984.12      0             -242161.46      5.038318       1368654.3    
    358500   99.944904     -242987.4       0             -242160.61     -12.580896      1368669.4    
    359000   99.638923     -242983.43      0             -242159.17      6.4973377      1368684.4    
    359500   100.23611     -242986.5       0             -242157.29     -7.0458971      1368699.4    
    360000   99.925096     -242982.05      0             -242155.42      22.014984      1368714.2    
    360500   100.19181     -242982.91      0             -242154.07     -17.748761      1368729      
    361000   100.05916     -242981.07      0             -242153.33     -10.298946      1368743.7    
    361500   100.13774     -242981.74      0             -242153.35     -33.198176      1368758.2    
    362000   99.997008     -242982.01      0             -242154.78     -15.991952      1368772.7    
    362500   99.801584     -242984.59      0             -242158.98     -41.632344      1368787      
    363000   99.917984     -242988.9       0             -242162.33     -82.932371      1368801.2    
    363500   99.640402     -242987.43      0             -242163.15     -74.090711      1368815.2    
    364000   99.188373     -242982.81      0             -242162.27     -58.289613      1368829      
    364500   99.869666     -242986.01      0             -242159.84     -94.403445      1368842.5    
    365000   99.85468      -242983         0             -242156.95     -79.723545      1368855.9    
    365500   100.33295     -242985         0             -242154.99     -100.54879      1368869.1    
    366000   100.37983     -242984.52      0             -242154.13     -105.62198      1368882      
    366500   99.753024     -242979.17      0             -242153.96     -94.64469       1368894.8    
    367000   100.25665     -242983.67      0             -242154.29     -118.13244      1368907.3    
    367500   100.0302      -242982.6       0             -242155.09     -124.55867      1368919.5    
    368000   100.46553     -242987.51      0             -242156.41     -146.60738      1368931.5    
    368500   99.962147     -242985.96      0             -242159.02     -166.06007      1368943.3    
    369000   99.983216     -242990.27      0             -242163.16     -183.14104      1368954.8    
    369500   99.134735     -242985.57      0             -242165.47     -168.85682      1368965.9    
    370000   99.044522     -242984.49      0             -242165.14     -183.49321      1368976.8    
    370500   99.958065     -242989.75      0             -242162.84     -207.06091      1368987.2    
    371000   99.494124     -242983.44      0             -242160.37     -173.90906      1368997.3    
    371500   99.892845     -242985.05      0             -242158.68     -199.71477      1369007.1    
    372000   99.607718     -242981.3       0             -242157.29     -165.63982      1369016.6    
    372500   100.07998     -242983.79      0             -242155.87     -176.05296      1369025.7    
    373000   100.10399     -242982.68      0             -242154.57     -189.85437      1369034.4    
    373500   99.579189     -242977.17      0             -242153.4      -159.4671       1369042.9    
    374000   100.40109     -242983.17      0             -242152.6      -182.27399      1369051      
    374500   99.947039     -242979.12      0             -242152.3      -197.85422      1369058.8    
    375000   100.10178     -242980.95      0             -242152.85     -196.23175      1369066.2    
[...]
   6150500   100.33907     -242980.43      0             -242150.37      129.47589      1368511.3    
   6151000   100.33716     -242983.03      0             -242152.99      96.136733      1368506      
   6151500   100.21417     -242984.45      0             -242155.42      96.550189      1368500.8    
   6152000   99.943526     -242983.75      0             -242156.96      100.48224      1368495.8    
   6152500   100.32622     -242987.85      0             -242157.9       83.795052      1368490.9    
   6153000   99.921973     -242985.04      0             -242158.43      94.012154      1368486.3    
   6153500   99.866101     -242984.87      0             -242158.73      123.62876      1368481.7    
   6154000   100.08279     -242986.54      0             -242158.6       105.26871      1368477.4    
   6154500   100.22024     -242987.01      0             -242157.94      123.05566      1368473.2    
   6155000   100.27283     -242985.53      0             -242156.02      105.46414      1368469.2    
   6155500   100.12648     -242981.29      0             -242153         136.22016      1368465.4    
   6156000   100.69966     -242983.73      0             -242150.69      137.39684      1368461.8    
   6156500   100.5346      -242981.83      0             -242150.16      142.95642      1368458.4    
   6157000   99.937851     -242978.29      0             -242151.55      159.58511      1368455.3    
   6157500   100.15655     -242983.35      0             -242154.81      133.83282      1368452.3    
   6158000   100.49831     -242989.26      0             -242157.89      104.37219      1368449.6    
   6158500   99.956498     -242986.08      0             -242159.19      129.03133      1368447.1    
   6159000   99.729968     -242984.46      0             -242159.45      138.5384       1368444.9    
   6159500   100.10286     -242987.3       0             -242159.2       115.5695       1368442.8    
   6160000   99.845964     -242984.54      0             -242158.56      121.67568      1368440.9    
   6160500   99.830263     -242983.25      0             -242157.4       137.80827      1368439.2    
   6161000   100.28728     -242985.29      0             -242155.67      133.36164      1368437.7    
   6161500   100.13172     -242981.52      0             -242153.18      137.62149      1368436.4    
   6162000   100.39806     -242981.06      0             -242150.51      152.36373      1368435.4    
   6162500   100.64919     -242981.31      0             -242148.68      145.17734      1368434.7    
   6163000   100.84729     -242982.95      0             -242148.68      164.04019      1368434.2    
   6163500   100.10509     -242980.21      0             -242152.09      168.31588      1368434      
   6164000   99.903674     -242983.31      0             -242156.86      145.70411      1368434      
   6164500   100.01273     -242986.28      0             -242158.92      135.33837      1368434.2    
   6165000   99.927125     -242986.45      0             -242159.8       120.38767      1368434.7    
   6165500   100.04892     -242987.66      0             -242160         113.55409      1368435.3    
   6166000   99.827745     -242985.33      0             -242159.5       128.48407      1368436.2    
   6166500   99.631622     -242982.4       0             -242158.2       134.27772      1368437.3    
   6167000   100.00475     -242983.59      0             -242156.3       133.63055      1368438.5    
   6167500   100.64955     -242986.67      0             -242154.04      129.35255      1368440      
   6168000   100.34658     -242982.46      0             -242152.34      149.48399      1368441.7    
   6168500   99.759999     -242976.75      0             -242151.49      152.12548      1368443.7    
   6169000   99.853866     -242978.13      0             -242152.09      159.78142      1368445.9    
   6169500   99.725282     -242980.7       0             -242155.72      144.80942      1368448.3    
   6170000   99.694607     -242984.66      0             -242159.93      121.44055      1368450.9    
   6170500   99.976547     -242988.7       0             -242161.64      93.752932      1368453.7    
   6171000   99.859333     -242987.96      0             -242161.87      85.305267      1368456.7    
   6171500   99.423048     -242983.48      0             -242161         114.84431      1368459.8    
   6172000   100.11215     -242987.19      0             -242159.01      100.17235      1368463.1    
   6172500   100.4147      -242987.12      0             -242156.44      93.613896      1368466.6    
   6173000   100.42298     -242985.14      0             -242154.39      97.491154      1368470.3    
   6173500   99.921088     -242980.09      0             -242153.49      125.34526      1368474.2    
   6174000   100.47451     -242984.73      0             -242153.56      101.74134      1368478.2    
   6174500   99.45533      -242977.25      0             -242154.51      151.10178      1368482.4    
   6175000   99.949056     -242982.76      0             -242155.93      106.18618      1368486.8    
   6175500   99.764198     -242982.69      0             -242157.39      118.91458      1368491.4    
   6176000   100.27717     -242987.55      0             -242158         84.142693      1368496.2    
   6176500   99.667983     -242982.57      0             -242158.06      91.737434      1368501.1    
   6177000   100.11053     -242986.07      0             -242157.91      86.769207      1368506.1    
   6177500   100.28962     -242987.23      0             -242157.59      68.380156      1368511.3    
   6178000   100.09585     -242985.12      0             -242157.07      75.477969      1368516.6    
   6178500   99.903411     -242982.97      0             -242156.51      101.50289      1368522.1    
   6179000   100.23166     -242985.06      0             -242155.89      77.442644      1368527.7    
   6179500   100.11844     -242983.45      0             -242155.21      83.209702      1368533.4    
   6180000   100.23113     -242983.89      0             -242154.73      86.369088      1368539.3    
   6180500   100.2666      -242984.16      0             -242154.7       82.839954      1368545.3    
   6181000   100.15579     -242984.03      0             -242155.48      86.151576      1368551.5    
   6181500   100.47239     -242988.36      0             -242157.2       52.708838      1368557.7    
   6182000   100.14181     -242987.97      0             -242159.54      40.605816      1368564.1    
   6182500   99.830294     -242987.32      0             -242161.47      46.76044       1368570.6    
   6183000   99.784189     -242987.96      0             -242162.49      39.134166      1368577.2    
   6183500   99.835083     -242988.03      0             -242162.14      25.200497      1368583.8    
   6184000   99.953158     -242986.69      0             -242159.82      51.879858      1368590.5    
   6184500   100.24951     -242984.78      0             -242155.47      46.765453      1368597.2    
   6185000   100.15788     -242981.51      0             -242152.95      63.919025      1368604.1    
   6185500   100.28976     -242982.18      0             -242152.53      54.646922      1368611      
   6186000   100.57783     -242985.18      0             -242153.15      41.072146      1368618.1    
   6186500   100.2822      -242984.19      0             -242154.61      32.703041      1368625.2    
   6187000   99.896375     -242983         0             -242156.61      27.645194      1368632.3    
   6187500   99.821731     -242984.21      0             -242158.43      24.842573      1368639.6    
   6188000   99.490537     -242982.8       0             -242159.77      26.560417      1368646.9    
   6188500   99.254914     -242981.44      0             -242160.35      30.568822      1368654.1    
   6189000   99.643683     -242984.35      0             -242160.04      12.23943       1368661.5    
   6189500   99.534586     -242980.66      0             -242157.25      24.467856      1368668.8    
   6190000   100.01872     -242979.41      0             -242152.01      28.27604       1368676.1    
   6190500   100.79704     -242983.72      0             -242149.88     -0.22525111     1368683.5    
   6191000   100.45382     -242980.98      0             -242149.97      17.153357      1368690.9    
   6191500   100.7589      -242985.28      0             -242151.75     -3.9158201      1368698.4    
   6192000   100.14643     -242983.11      0             -242154.65     -8.290643       1368705.9    
   6192500   99.694881     -242981.94      0             -242157.21     -6.1618108      1368713.4    
   6193000   99.516772     -242981.96      0             -242158.71     -12.427601      1368720.8    
   6193500   99.812613     -242985.01      0             -242159.3      -23.342549      1368728.3    
   6194000   99.851535     -242985.24      0             -242159.21     -34.989427      1368735.7    
   6194500   99.78944      -242983.85      0             -242158.34     -44.665126      1368743      
   6195000   100.11178     -242984.57      0             -242156.4      -37.999872      1368750.3    
   6195500   100.1472      -242981.25      0             -242152.78     -22.000531      1368757.5    
   6196000   100.60353     -242981.48      0             -242149.23     -5.8911418      1368764.8    
   6196500   100.07146     -242976.13      0             -242148.29      20.347926      1368772      
   6197000   100.18719     -242978.05      0             -242149.25     -22.682337      1368779.1    
   6197500   100.51899     -242982.55      0             -242151.01     -43.301084      1368786.3    
   6198000   99.988109     -242979.97      0             -242152.82     -32.004541      1368793.4    
   6198500   100.003       -242981.78      0             -242154.51     -25.74738       1368800.4    
   6199000   100.02438     -242983.44      0             -242155.98     -60.624305      1368807.4    
   6199500   99.945938     -242984.02      0             -242157.22     -62.906467      1368814.2    
   6200000   100.33113     -242988.1       0             -242158.1      -112.02626      1368821      
   6200500   99.577921     -242982.37      0             -242158.61     -73.234894      1368827.6    
   6201000   99.709355     -242983.46      0             -242158.61     -86.682998      1368834.1    
   6201500   100.00921     -242984.81      0             -242157.49     -79.159866      1368840.5    
   6202000   100.30664     -242984.32      0             -242154.53     -81.605845      1368846.8    
   6202500   100.24244     -242980.73      0             -242151.47     -63.865575      1368852.9    
   6203000   100.49677     -242981.32      0             -242149.96     -75.622015      1368858.9    
   6203500   100.46529     -242981.2       0             -242150.1      -84.19871       1368864.8    
   6204000   100.70447     -242985.01      0             -242151.93     -102.59413      1368870.6    
   6204500   100.2459      -242984.36      0             -242155.08     -95.494443      1368876.3    
   6205000   99.643878     -242981.97      0             -242157.66     -98.686834      1368881.8    
   6205500   99.550837     -242982.18      0             -242158.64     -91.084439      1368887.2    
   6206000   99.988645     -242985.79      0             -242158.64     -113.72538      1368892.4    
   6206500   100.09589     -242986.16      0             -242158.11     -126.34803      1368897.4    
   6207000   99.853851     -242983.21      0             -242157.17     -106.95746      1368902.2    
   6207500   100.01206     -242983.29      0             -242155.94     -113.86575      1368906.9    
   6208000   99.924375     -242981.1       0             -242154.48     -103.40909      1368911.4    
   6208500   100.12706     -242980.97      0             -242152.67     -119.14566      1368915.7    
   6209000   100.25425     -242978.85      0             -242149.5      -117.41935      1368919.9    
   6209500   100.59054     -242978.16      0             -242146.02     -93.321829      1368923.9    
   6210000   100.70612     -242977.79      0             -242144.7      -85.650649      1368927.7    
   6210500   100.79946     -242980.19      0             -242146.33     -92.162827      1368931.4    
   6211000   101.0593      -242986.36      0             -242150.35     -137.02694      1368935      
   6211500   100.28885     -242982.66      0             -242153.02     -127.31837      1368938.4    
   6212000   99.516426     -242977.65      0             -242154.4      -94.081217      1368941.6    
   6212500   100.05641     -242983.29      0             -242155.57     -118.81145      1368944.6    
   6213000   99.919573     -242983.34      0             -242156.75     -121.43566      1368947.4    
   6213500   99.732828     -242982.85      0             -242157.81     -146.65645      1368950      
   6214000   99.756555     -242983.82      0             -242158.58     -137.8255       1368952.3    
   6214500   100.07423     -242986.65      0             -242158.79     -160.89391      1368954.4    
   6215000   99.66208      -242982.59      0             -242158.13     -150.69494      1368956.3    
   6215500   99.892976     -242982.49      0             -242156.12     -130.19538      1368958      
   6216000   100.00881     -242980.35      0             -242153.02     -120.63104      1368959.4    
   6216500   100.31455     -242980.49      0             -242150.63     -110.62929      1368960.7    
   6217000   100.24256     -242979.05      0             -242149.79     -116.26918      1368961.8    
   6217500   100.02198     -242977.97      0             -242150.54     -111.50299      1368962.6    
   6218000   99.79298      -242978.4       0             -242152.86     -123.54146      1368963.3    
   6218500   100.02416     -242983.7       0             -242156.25     -137.53599      1368963.7    
   6219000   99.874823     -242984.54      0             -242158.32     -149.91048      1368964      
   6219500   100.31425     -242988.49      0             -242158.63     -160.19359      1368964      
   6220000   99.627551     -242982.39      0             -242158.22     -147.91484      1368963.7    
   6220500   99.906724     -242983.85      0             -242157.37     -144.9066       1368963.2    
   6221000   100.23213     -242985.29      0             -242156.12     -162.95245      1368962.5    
   6221500   100.32804     -242984.55      0             -242154.59     -151.27258      1368961.6    
   6222000   99.67837      -242977.71      0             -242153.12     -131.16294      1368960.4    
   6222500   100.61238     -242984.1       0             -242151.79     -139.42395      1368959      
   6223000   100.27218     -242980.2       0             -242150.7      -126.11298      1368957.4    
   6223500   100.13849     -242978.66      0             -242150.27     -96.856344      1368955.7    
   6224000   100.4772      -242982.53      0             -242151.33     -116.92006      1368953.7    
   6224500   100.13799     -242982.75      0             -242154.35     -134.30106      1368951.5    
   6225000   99.942414     -242984.28      0             -242157.5      -139.95287      1368949.1    
   6225500   99.830093     -242985.24      0             -242159.4      -142.66101      1368946.5    
   6226000   99.945312     -242986.9       0             -242160.1      -162.49148      1368943.7    
   6226500   99.846089     -242985.62      0             -242159.64     -150.18838      1368940.6    
   6227000   99.757654     -242983.32      0             -242158.08     -147.3756       1368937.3    
   6227500   100.10733     -242983.36      0             -242155.22     -122.17768      1368933.8    
   6228000   100.16308     -242980.81      0             -242152.21     -136.08267      1368930.1    
   6228500   100.41008     -242981.4       0             -242150.76     -110.34022      1368926.1    
   6229000   100.6491      -242983.54      0             -242150.91     -120.92295      1368922      
   6229500   100.25642     -242981.24      0             -242151.87     -100.37281      1368917.8    
   6230000   100.19526     -242981.84      0             -242152.97     -107.91402      1368913.4    
   6230500   100.30145     -242983.95      0             -242154.21     -119.20464      1368908.8    
   6231000   100.33704     -242985.47      0             -242155.43     -109.86281      1368904      
   6231500   100.19475     -242985.43      0             -242156.57     -130.52273      1368899.1    
   6232000   99.616859     -242981.62      0             -242157.53     -109.39076      1368894      
   6232500   99.888206     -242984.54      0             -242158.21     -123.74966      1368888.7    
   6233000   100.10793     -242986.9       0             -242158.76     -121.19526      1368883.2    
   6233500   99.739876     -242984.15      0             -242159.05     -125.07246      1368877.6    
   6234000   99.906236     -242985.17      0             -242158.69     -99.758109      1368871.8    
   6234500   100.05247     -242985.01      0             -242157.32     -109.66332      1368865.8    
   6235000   100.38118     -242985.77      0             -242155.37     -96.223574      1368859.7    
   6235500   100.28744     -242983         0             -242153.37     -86.911636      1368853.5    
   6236000   100.38854     -242982.51      0             -242152.04     -59.729625      1368847.1    
   6236500   100.38688     -242982.13      0             -242151.68     -59.878011      1368840.7    
   6237000   100.29017     -242982.19      0             -242152.54     -71.119053      1368834.1    
   6237500   99.851033     -242981.16      0             -242155.14     -59.081291      1368827.4    
   6238000   99.753259     -242983.92      0             -242158.71     -69.004919      1368820.7    
   6238500   99.424107     -242983.28      0             -242160.79     -66.996648      1368813.8    
   6239000   99.311686     -242982.71      0             -242161.15     -44.752829      1368806.8    
   6239500   99.403472     -242982.73      0             -242160.41     -55.51397       1368799.7    
   6240000   100.05326     -242986.68      0             -242158.99     -56.903447      1368792.5    
   6240500   99.679666     -242982.07      0             -242157.46     -52.538207      1368785.2    
   6241000   99.408862     -242978.57      0             -242156.21     -33.226179      1368777.8    
   6241500   99.846502     -242981.55      0             -242155.57     -43.755749      1368770.4    
   6242000   100.03911     -242982.88      0             -242155.3      -15.856735      1368762.9    
   6242500   100.24233     -242984.63      0             -242155.37     -38.069923      1368755.3    
   6243000   99.985954     -242982.81      0             -242155.68     -35.122002      1368747.7    
   6243500   99.934805     -242982.77      0             -242156.06     -25.928127      1368740      
   6244000   100.38766     -242986.89      0             -242156.43     -31.692504      1368732.3    
   6244500   100.21169     -242985.79      0             -242156.79     -33.216222      1368724.6    
   6245000   100.0439      -242984.79      0             -242157.17     -12.370374      1368716.8    
   6245500   100.07116     -242985.46      0             -242157.62     -17.673741      1368709      
   6246000   99.693619     -242983.43      0             -242158.71     -6.2591758      1368701.2    
   6246500   99.536454     -242983.87      0             -242160.46      12.856848      1368693.4    
   6247000   99.404632     -242984.03      0             -242161.71     -8.4386819      1368685.6    
   6247500   100.02307     -242989.29      0             -242161.84     -24.348573      1368677.7    
   6248000   100.00782     -242987.95      0             -242160.64     -0.64499217     13686
  Loop