LAMMPS (2 Aug 2023)
Lattice spacing in x,y,z = 5.5392 5.5392 5.5392
Created orthogonal box = (0 0 0) to (110.784 110.784 110.784)
  1 by 2 by 2 MPI processor grid
Created 64000 atoms
  using lattice units in orthogonal box = (0 0 0) to (110.784 110.784 110.784)
  create_atoms CPU = 0.003 seconds
32000 atoms in group Ba
32000 atoms in group O
WARNING: 23463 of 50000 force values in table Vash_11 are inconsistent with -dE/dr.
WARNING:  Should only be flagged at inflection points (../pair_table.cpp:466)
WARNING: 43814 of 50000 distance values in table 1e-06 with relative error
WARNING:  over Vash_11 to re-computed values (../pair_table.cpp:474)
WARNING: 23576 of 50000 force values in table Vash_12 are inconsistent with -dE/dr.
WARNING:  Should only be flagged at inflection points (../pair_table.cpp:466)
WARNING: 43814 of 50000 distance values in table 1e-06 with relative error
WARNING:  over Vash_12 to re-computed values (../pair_table.cpp:474)
WARNING: 23794 of 50000 force values in table Vash_22 are inconsistent with -dE/dr.
WARNING:  Should only be flagged at inflection points (../pair_table.cpp:466)
WARNING: 43814 of 50000 distance values in table 1e-06 with relative error
WARNING:  over Vash_22 to re-computed values (../pair_table.cpp:474)
Generated 0 of 1 mixed pair_coeff terms from geometric mixing rule
Neighbor list info ...
  update: every = 8 steps, delay = 0 steps, check = yes
  max neighbors/atom: 2000, page size: 100000
  master list distance cutoff = 11
  ghost atom cutoff = 11
  binsize = 5.5, bins = 21 21 21
  1 neighbor lists, perpetual/occasional/extra = 1 0 0
  (1) pair table, perpetual
      attributes: half, newton on
      pair build: half/bin/atomonly/newton
      stencil: half/bin/3d
      bin: standard
Setting up Verlet run ...
  Unit style    : metal
  Current step  : 0
  Time step     : 0.001
Per MPI rank memory allocation (min/avg/max) = 16.41 | 16.41 | 16.41 Mbytes
   Step          Temp          E_pair         E_mol          TotEng         Press          Volume    
         0   1500          -243821.04      0             -231412.26      9435.5064      1359662.5    
       500   772.03161     -237554.41      0             -231167.76      35438.242      1359664.3    
      1000   819.49395     -237583.44      0             -230804.16      35971.67       1359669.8    
      1500   835.37398     -237296.79      0             -230386.14      37401.986      1359679.1    
      2000   867.02714     -237100.79      0             -229928.29      38595.653      1359692.3    
      2500   900.31755     -236885.67      0             -229437.77      39664.991      1359709.6    
      3000   934.56663     -236650.02      0             -228918.8       41057.957      1359731      
      3500   965.88607     -236365.78      0             -228375.47      42474.171      1359756.6    
      4000   1003.3991     -236111.35      0             -227810.71      43922.338      1359786.8    
      4500   1042.615      -235852.82      0             -227227.76      45358.528      1359821.5    
      5000   1079.982      -235563.94      0             -226629.77      46933.065      1359861      
      5500   1118.1802     -235270.58      0             -226020.42      48339.521      1359905.4    
      6000   1161.175      -235009.24      0             -225403.4       49933.803      1359954.9    
      6500   1199.3596     -234704.44      0             -224782.71      51469.039      1360009.5    
      7000   1236.0055     -234388.73      0             -224163.85      53124.44       1360069.6    
      7500   1276.2438     -234109.17      0             -223551.42      54677.188      1360135.2    
      8000   1319.3683     -233865.96      0             -222951.46      55990.361      1360206.5    
      8500   1352.2517     -233557.47      0             -222370.95      57433.197      1360283.7    
      9000   1396.655      -233371.33      0             -221817.47      58631.036      1360366.8    
      9500   1422.5732     -233067.59      0             -221299.33      60280.646      1360456.1    
     10000   1456.9569     -232878.97      0             -220826.26      60917.8        1360551.6    
     10500   1474.2197     -232606.38      0             -220410.87      62269.281      1360653.4    
     11000   1505.0873     -232518.88      0             -220068.02      62992.289      1360761.7    
     11500   1523.4014     -232415.91      0             -219813.54      63308.548      1360876.4    
     12000   1532.8685     -232350.26      0             -219669.58      63730.156      1360997.7    
     12500   1530.0341     -232313.71      0             -219656.47      63810.52       1361125.6    
     13000   1521.0157     -232356.41      0             -219773.77      63369.046      1361259.9    
     13500   1512.8336     -232492.72      0             -219977.77      62622.323      1361400.6    
     14000   1496.2862     -232578.04      0             -220199.98      62242.97       1361547.7    
     14500   1485.0535     -232669.52      0             -220384.38      61725.051      1361701      
     15000   1479.9228     -232738.86      0             -220496.17      61385.198      1361860.5    
     15500   1478.2313     -232744.39      0             -220515.69      61017.187      1362025.9    
     16000   1480.4926     -232687.25      0             -220439.85      61316.463      1362197.3    
     16500   1490.5141     -232623.69      0             -220293.39      61553.924      1362374.6    
     17000   1503.8798     -232561.76      0             -220120.89      61953.128      1362557.8    
     17500   1511.0204     -232468.53      0             -219968.58      62361.568      1362746.7    
     18000   1517.204      -232422.19      0             -219871.09      62329.96       1362941.3    
     18500   1516.2981     -232393.29      0             -219849.69      62362.162      1363141.5    
     19000   1517.7898     -232463.8       0             -219907.86      62071.42       1363347.2    
     19500   1507.1306     -232497.04      0             -220029.27      61598.08       1363558.3    
     20000   1498.0537     -232571.31      0             -220178.63      61391.166      1363774.6    
     20500   1485.7565     -232604.4       0             -220313.45      60936.109      1363995.8    
     21000   1481.7901     -232661.54      0             -220403.4       60502.286      1364221.8    
     21500   1473.8957     -232620.36      0             -220427.53      60560.598      1364452.4    
     22000   1487.8462     -232688.04      0             -220379.8       60285.969      1364687.4    
     22500   1491.3829     -232612.35      0             -220274.86      60655.932      1364926.5    
     23000   1495.4643     -232515.68      0             -220144.42      60908.229      1365169.8    
     23500   1517.2541     -232574         0             -220022.49      60721.513      1365416.8    
     24000   1514.428      -232468.78      0             -219940.64      61148.193      1365667.6    
     24500   1515.4988     -232455.5       0             -219918.5       61023.296      1365921.8    
     25000   1510.8693     -232459.45      0             -219960.75      60792.863      1366179.3    
     25500   1507.8841     -232529.61      0             -220055.61      60491.979      1366439.7    
     26000   1503.3578     -232611.18      0             -220174.62      59880.791      1366702.8    
     26500   1495.0648     -232654.8       0             -220286.84      59563.228      1366968.4    
     27000   1490.7402     -232695.98      0             -220363.81      59363.509      1367236.2    
     27500   1479.8352     -232630.22      0             -220388.26      59342.057      1367505.8    
     28000   1490.7153     -232685.51      0             -220353.54      58947.562      1367777.1    
     28500   1494.1755     -232629.96      0             -220269.36      59210.114      1368049.8    
     29000   1500.4396     -232572.22      0             -220159.81      59238.025      1368323.6    
     29500   1504.1567     -232498.3       0             -220055.14      59724.612      1368598.3    
     30000   1516.4153     -232525.89      0             -219981.32      59254.534      1368873.8    
     30500   1512.0608     -232465.39      0             -219956.84      59489.298      1369149.8    
     31000   1513.9892     -232512.48      0             -219987.97      59193.506      1369426.1    
     31500   1510.6777     -232563.68      0             -220066.57      58837.336      1369702.4    
     32000   1498.045      -232563.2       0             -220170.59      58648.099      1369978.5    
     32500   1490.1648     -232599.75      0             -220272.33      58562.081      1370254.2    
     33000   1492.5217     -232692.02      0             -220345.1       57779.071      1370529.4    
     33500   1490.0778     -232697.36      0             -220370.66      57646.426      1370803.6    
     34000   1489.3488     -232664.07      0             -220343.4       57598.474      1371077      
     34500   1490.9858     -232605.86      0             -220271.65      57957.363      1371349.1    
     35000   1491.8775     -232516.24      0             -220174.65      58243.858      1371620.1    
     35500   1507.8823     -232552.71      0             -220078.72      58052.909      1371889.6    
     36000   1506.8144     -232473.85      0             -220008.7       58077.672      1372157.8    
     36500   1511.6352     -232487.86      0             -219982.83      58130.615      1372424.4    
     37000   1518.2353     -232566.35      0             -220006.72      57675.989      1372689.4    
     37500   1504.9998     -232524.08      0             -220073.94      57477.101      1372952.8    
     38000   1498.0905     -232557.5       0             -220164.51      57412.891      1373214.4    
     38500   1498.8462     -232654.15      0             -220254.91      56838.25       1373474.3    
     39000   1494.4897     -232685.43      0             -220322.24      56556.111      1373732.3    
     39500   1493.5689     -232705.32      0             -220349.74      56410.35       1373988.4    
     40000   1494.4164     -232692.52      0             -220329.94      56290.548      1374242.7    
     40500   1495.1017     -232637.55      0             -220269.29      56485.401      1374495.1    
     41000   1494.0748     -232543.63      0             -220183.87      56625.635      1374745.7    
     41500   1505.0629     -232549.03      0             -220098.36      56904.518      1374994.5    
     42000   1514.1435     -232559.31      0             -220033.53      56700.97       1375241.6    
     42500   1511.121      -232507.37      0             -220006.59      56844.186      1375487.1    
     43000   1507.6987     -232496.59      0             -220024.12      56614.958      1375731.1    
     43500   1504.6279     -232527.26      0             -220080.19      56527.188      1375973.5    
     44000   1502.1585     -232585.84      0             -220159.2       56087.18       1376214.4    
     44500   1494.7133     -232605.25      0             -220240.21      55664.548      1376454      
     45000   1488.8758     -232618.29      0             -220301.53      55600.335      1376692.2    
     45500   1489.6921     -232651.05      0             -220327.54      55289.887      1376929.1    
     46000   1490.4022     -232642.46      0             -220313.08      55338.716      1377164.7    
     46500   1487.8792     -232568.2       0             -220259.69      55661.453      1377399.3    
     47000   1501.81       -232607.13      0             -220183.37      55574.61       1377632.8    
     47500   1497.4816     -232492.82      0             -220104.87      55827.721      1377865.4    
     48000   1509.5443     -232532.49      0             -220044.75      55488.919      1378097.2    
     48500   1510.2535     -232512.7       0             -220019.1       55533.719      1378328.3    
     49000   1508.2807     -232510.67      0             -220033.39      55720.675      1378558.7    
     49500   1503.1299     -232518.9       0             -220084.23      55269.637      1378788.6    
     50000   1504.237      -232601.42      0             -220157.59      54781.113      1379018      
     50500   1496.5506     -232614.17      0             -220233.92      54568.939      1379247      
     51000   1491.3477     -232629.94      0             -220292.74      54673.823      1379475.6    
     51500   1490.219      -232646.51      0             -220318.64      54323.03       1379703.9    
     52000   1489.4511     -232626.51      0             -220305         54346.424      1379931.9    
     52500   1490.5664     -232586.45      0             -220255.71      54365.361      1380159.8    
     53000   1497.0989     -232568.74      0             -220183.96      54352.931      1380387.5    
     53500   1503.0883     -232544.14      0             -220109.81      54491.369      1380615.3    
     54000   1510.8555     -232550.5       0             -220051.91      54149.991      1380843      
     54500   1509.6476     -232514.11      0             -220025.52      54517.895      1381070.8    
     55000   1505.547      -232492.32      0             -220037.65      54338.346      1381298.8    
     55500   1506.3469     -232545.54      0             -220084.26      54059.644      1381527      
     56000   1498.0227     -232544.54      0             -220152.12      53891.527      1381755.3    
     56500   1493.577      -232578.78      0             -220223.14      53746.773      1381983.9    
     57000   1493.9925     -232638.37      0             -220279.29      53398.942      1382212.8    
     57500   1485.858      -232597.88      0             -220306.09      53569.752      1382441.8    
     58000   1492.1903     -232640.4       0             -220296.22      53214.286      1382671.2    
     58500   1499.5141     -232656.14      0             -220251.38      52938.797      1382900.7    
     59000   1499.4811     -232589.34      0             -220184.85      53221.177      1383130.6    
     59500   1502.3096     -232542.98      0             -220115.09      53399.381      1383360.9    
     60000   1509.2504     -232543.38      0             -220058.07      53394.644      1383591.4    
     60500   1512.9897     -232545.86      0             -220029.62      53438.92       1383822.3    
     61000   1516.4122     -232581.77      0             -220037.21      52991.417      1384053.6    
     61500   1502.6008     -232509.47      0             -220079.17      53145.668      1384285.3    
     62000   1503.1822     -232577.73      0             -220142.62      52714.114      1384517.3    
     62500   1497.7781     -232601.09      0             -220210.69      52446.911      1384749.5    
     63000   1494.2798     -232626.9       0             -220265.44      52179.039      1384982.1    
     63500   1498.0522     -232686.08      0             -220293.41      52046.708      1385214.9    
     64000   1488.7204     -232603.03      0             -220287.56      52154.07       1385447.9    
     64500   1489.984      -232573.88      0             -220247.96      52388.436      1385681.1    
     65000   1504.176      -232628.36      0             -220185.04      51914.59       1385914.5    
     65500   1501.9504     -232541.37      0             -220116.46      52211.428      1386148.1    
     66000   1504.5131     -232506.62      0             -220060.51      52379.003      1386381.8    
     66500   1505.4411     -232483.77      0             -220029.98      52410.862      1386615.7    
     67000   1507.4815     -232504.07      0             -220033.39      51921.646      1386849.7    
     67500   1506.6336     -232533.35      0             -220069.69      51848.37       1387083.8    
     68000   1503.9534     -232570.89      0             -220129.41      51791.158      1387318      
     68500   1495.523      -232567.25      0             -220195.51      51428.208      1387552.2    
     69000   1497.8112     -232641.16      0             -220250.48      51130.196      1387786.3    
     69500   1492.663      -232628.87      0             -220280.78      50995.007      1388020.3    
     70000   1491.4686     -232616.79      0             -220278.58      51000.009      1388254.2    
     70500   1493.8355     -232601.95      0             -220244.16      50964.304      1388488      
     71000   1497.6918     -232576.19      0             -220186.5       51101.724      1388721.5    
     71500   1506.2144     -232580.05      0             -220119.87      51020.257      1388954.8    
     72000   1505.1543     -232514.59      0             -220063.18      51001.434      1389187.9    
     72500   1513.5429     -232552.02      0             -220031.21      50840.659      1389420.7    
     73000   1506.8928     -232497.2       0             -220031.4       51235.789      1389653.3    
     73500   1511.1021     -232563.97      0             -220063.35      50684.841      1389885.5    
     74000   1502.2526     -232545.82      0             -220118.41      50621.006      1390117.4    
     74500   1498.3481     -232576.13      0             -220181.01      50393.635      1390348.9    
     75000   1493.088      -232587.19      0             -220235.59      50069.168      1390579.9    
     75500   1491.9969     -232609.41      0             -220266.84      50007.129      1390810.4    
     76000   1496.3019     -232645.07      0             -220266.88      49721.966      1391040.4    
     76500   1496.1082     -232612.34      0             -220235.76      49971.19       1391269.8    
     77000   1497.9413     -232572.9       0             -220181.15      49869.741      1391498.7    
     77500   1503.488      -232554.97      0             -220117.33      49979.65       1391726.9    
     78000   1508.3995     -232539.18      0             -220060.91      50045.785      1391954.6    
     78500   1503.34       -232464.22      0             -220027.81      50218.589      1392181.6    
     79000   1509.6713     -232513.86      0             -220025.07      50008.1        1392408      
     79500   1509.2872     -232538.71      0             -220053.1       49902.967      1392633.8    
     80000   1495.9806     -232479.27      0             -220103.74      49941.99       1392858.9    
     80500   1498.338      -232559.84      0             -220164.81      49303.154      1393083.3    
     81000   1493.2766     -232572.09      0             -220218.93      49274.489      1393306.9    
     81500   1493.0567     -232603.43      0             -220252.09      49170.251      1393529.8    
     82000   1491.9354     -232596.78      0             -220254.71      49045.568      1393751.9    
     82500   1494.3156     -232587.97      0             -220226.22      48925.622      1393973.2    
     83000   1497.1914     -232559.66      0             -220174.12      48898.922      1394193.8    
     83500   1509.6389     -232600.96      0             -220112.45      48826.946      1394413.5    
     84000   1506.8514     -232521.83      0             -220056.37      48977.543      1394632.4    
     84500   1510.448      -232516.7       0             -220021.49      49056.618      1394850.6    
     85000   1507.6873     -232488.65      0             -220016.28      48992.389      1395068      
     85500   1504.6617     -232490.07      0             -220042.73      49166.361      1395284.6    
     86000   1502.2416     -232520         0             -220092.68      48816.044      1395500.4    
     86500   1498.5248     -232548.77      0             -220152.2       48462.641      1395715.4    
     87000   1499.9628     -232613.12      0             -220204.65      48216.611      1395929.6    
     87500   1489.2711     -232557.31      0             -220237.29      48170.797      1396143      
     88000   1492.2194     -232584.93      0             -220240.51      48166.787      1396355.6    
     88500   1491.3553     -232550.14      0             -220212.88      48205.487      1396567.3    
     89000   1494.4456     -232524.89      0             -220162.06      48355.794      1396778.2    
     89500   1500.0421     -232510.58      0             -220101.46      48366.632      1396988.3    
     90000   1507.6049     -232518.25      0             -220046.56      48053.834      1397197.6    
     90500   1501.0495     -232429.12      0             -220011.66      48418.41       1397406.2    
     91000   1502.8018     -232437.1       0             -220005.14      48339.166      1397614      
     91500   1510.1084     -232521.38      0             -220028.98      47824.599      1397821.1    
     92000   1504.054      -232518.95      0             -220076.63      47887.175      1398027.5    
     92500   1499.6458     -232541.08      0             -220135.23      47687.389      1398233.1    
     93000   1493.3741     -232541.86      0             -220187.9       47585.133      1398438      
     93500   1493.8179     -232577.67      0             -220220.03      47272.57       1398642.1    
     94000   1495.7818     -232597.96      0             -220224.07      47048.526      1398845.4    
     94500   1491.1068     -232532.98      0             -220197.77      47248.534      1399048.1    
     95000   1499.092      -232550.52      0             -220149.25      47106.585      1399250      
     95500   1505.3388     -232543.99      0             -220091.05      47215.086      1399451.2    
     96000   1505.5467     -232492.96      0             -220038.3       47410.429      1399651.8    
     96500   1511.8085     -232511.75      0             -220005.28      47220.373      1399851.7    
     97000   1509.5414     -232487.16      0             -219999.45      47276.758      1400051      
     97500   1506.4934     -232485.34      0             -220022.84      47162.42       1400249.8    
     98000   1502.432      -232497.06      0             -220068.16      47014.146      1400447.9    
     98500   1495.74       -232496.92      0             -220123.38      46936.44       1400645.4    
     99000   1497.3765     -232559.52      0             -220172.44      46542.379      1400842.3    
     99500   1490.5302     -232532.72      0             -220202.28      46461.814      1401038.6    
    100000   1496.8506     -232587.32      0             -220204.6       46149.75       1401234.4    
    100500   1485.8504     -232470.28      0             -220178.56      46754.201      1401429.5    
    101000   1499.539      -232537.03      0             -220132.07      46519.94       1401624.1    
    101500   1501.968      -232501.6       0             -220076.54      46443.285      1401818.1    
    102000   1507.6002     -232499.19      0             -220027.54      46527.889      1402011.6    
    102500   1508.1713     -232473.65      0             -219997.27      46448.161      1402204.7    
    103000   1505.626      -232448.61      0             -219993.29      46307.789      1402397.2    
    103500   1504.1548     -232460.44      0             -220017.29      46337.551      1402589.3    
    104000   1499.4289     -232464.8       0             -220060.74      46291.196      1402780.9    
    104500   1497.2196     -232497.5       0             -220111.72      46115.856      1402972.1    
    105000   1494.3313     -232518.2       0             -220156.32      45858.695      1403162.8    
    105500   1498.6751     -232579.78      0             -220181.96      45387.948      1403353.1    
    106000   1492.6238     -232531.21      0             -220183.45      45525.747      1403542.8    
    106500   1493.851      -232516.82      0             -220158.91      45607.644      1403732.2    
    107000   1494.1887     -232476.36      0             -220115.65      45790.92       1403921.1    
    107500   1503.1232     -232498.46      0             -220063.84      45538.049      1404109.6    
    108000   1501.3128     -232437.35      0             -220017.71      46062.218      1404297.7    
    108500   1507.3501     -232458.62      0             -219989.03      45631.608      1404485.5    
    109000   1509.25       -232469.42      0             -219984.12      45621.922      1404672.9    
    109500   1507.5246     -232476.42      0             -220005.39      45486.457      1404860      
    110000   1504.4438     -232490.99      0             -220045.44      45219.065      1405046.7    
    110500   1498.9961     -232494.92      0             -220094.45      45155.18       1405233.1    
    111000   1498.6628     -232534.91      0             -220137.19      44872.397      1405419.1    
    111500   1489.3856     -232484.26      0             -220163.29      45074.296      1405604.8    
    112000   1498.7832     -232565.14      0             -220166.43      44608.295      1405790.1    
    112500   1494.8999     -232510.51      0             -220143.92      44899.794      1405975.1    
    113000   1495.2568     -232472.35      0             -220102.81      44863.297      1406159.7    
    113500   1503.2098     -232488.13      0             -220052.79      44810.631      1406344      
    114000   1503.3451     -232443.63      0             -220007.17      45013.34       1406528      
    114500   1506.6283     -232441.02      0             -219977.41      44949.751      1406711.8    
    115000   1500.3463     -232383.42      0             -219971.77      44980.495      1406895.2    
    115500   1507.1924     -232458.7       0             -219990.42      44711.488      1407078.4    
    116000   1500.624      -232443.62      0             -220029.68      44789.32       1407261.4    
    116500   1495.8552     -232452.5       0             -220078.01      44786.851      1407444      
    117000   1496.6349     -232501.95      0             -220121.01      44086.942      1407626.4    
    117500   1498.0664     -232539.97      0             -220147.19      43910.709      1407808.5    
    118000   1491.8411     -232492.16      0             -220150.87      44130.599      1407990.3    
    118500   1494.3367     -232491.31      0             -220129.38      44228.554      1408171.9    
    119000   1491.4991     -232427.55      0             -220089.09      44365.5        1408353.2    
    119500   1504.805      -232488.54      0             -220040.01      43994.892      1408534.2    
    120000   1505.4307     -232449.16      0             -219995.45      44142.413      1408715      
    120500   1508.5776     -232446.42      0             -219966.68      44245.896      1408895.5    
    121000   1508.7109     -232442.93      0             -219962.08      44383.507      1409075.9    
    121500   1503.4589     -232418.46      0             -219981.06      44288.021      1409256      
    122000   1496.9884     -232402.33      0             -220018.47      43990.237      1409435.9    
    122500   1494.7859     -232428.56      0             -220062.91      44018.757      1409615.6    
    123000   1497.768      -232493.53      0             -220103.21      43838.73       1409795.1    
    123500   1497.31       -232513.62      0             -220127.09      43196.791      1409974.3    
    124000   1494.6167     -232493.84      0             -220129.59      43485.079      1410153.3    
    124500   1492.4122     -232454.78      0             -220108.77      43405.452      1410332.1    
    125000   1494.4586     -232435.24      0             -220072.3       43418.779      1410510.6    
    125500   1499.5373     -232432.73      0             -220027.78      43708.383      1410688.9    
    126000   1501.3376     -232406.42      0             -219986.58      43519.456      1410867      
    126500   1506.156      -232417.89      0             -219958.19      43703.508      1411044.8    
    127000   1506.5152     -232413.87      0             -219951.2       43477.667      1411222.5    
    127500   1506.8711     -232431.48      0             -219965.86      43240.075      1411400      
    128000   1503.1707     -232433.86      0             -219998.85      43208.02       1411577.3    
    128500   1496.8533     -232423.08      0             -220040.34      43170.955      1411754.5    
    129000   1499.1802     -232481.66      0             -220079.66      42911.572      1411931.4    
    129500   1494.383      -232468.53      0             -220106.22      42819.341      1412108.1    
    130000   1494.459      -232475.5       0             -220112.56      42746.77       1412284.5    
    130500   1493.9992     -232455.53      0             -220096.39      42731.45       1412460.8    
    131000   1498.5302     -232457.77      0             -220061.15      42779.692      1412636.8    
    131500   1505.4772     -232470.53      0             -220016.44      42693.086      1412812.7    
    132000   1508.828      -232455.47      0             -219973.66      42667.945      1412988.3    
    132500   1509.8202     -232434.31      0             -219944.29      42774.664      1413163.8    
    133000   1501.652      -232359.05      0             -219936.6       42845.071      1413339.1    
    133500   1502.4197     -232379.81      0             -219951.01      42665.454      1413514.3    
    134000   1505.1078     -232435.35      0             -219984.32      42572.537      1413689.2    
    134500   1497.3972     -232414.89      0             -220027.65      42450.144      1413864      
    135000   1497.942      -232460.13      0             -220068.38      42209.655      1414038.6    
    135500   1496.4292     -232473.2       0             -220093.96      42113.638      1414213      
    136000   1490.3373     -232426.56      0             -220097.72      42269.877      1414387.2    
    136500   1503.7187     -232517.67      0             -220078.13      41782.703      1414561.2    
    137000   1496.8994     -232424.27      0             -220041.14      42341.206      1414735      
    137500   1492.0173     -232338.6       0             -219995.85      42410.185      1414908.6    
    138000   1501.6041     -232375.57      0             -219953.52      42193.56       1415082      
    138500   1502.2439     -232353.53      0             -219926.19      42268.946      1415255.2    
    139000   1507.1861     -232387.96      0             -219919.74      42072.377      1415428.2    
    139500   1502.7807     -232366.82      0             -219935.04      42127.475      1415601.1    
    140000   1500.9315     -232384.66      0             -219968.17      41998.904      1415773.9    
    140500   1495.4082     -232380.6       0             -220009.81      41848.8        1415946.4    
    141000   1495.9327     -232423.31      0             -220048.18      41678.106      1416118.8    
    141500   1490.254      -232400.46      0             -220072.3       41601.165      1416291      
    142000   1497.6419     -232465.19      0             -220075.92      41273.495      1416463      
    142500   1496.4579     -232437.7       0             -220058.22      41566.507      1416634.8    
    143000   1494.3847     -232385.11      0             -220022.78      41460.616      1416806.4    
    143500   1499.2844     -232381.93      0             -219979.07      41545.831      1416977.9    
    144000   1497.4774     -232327         0             -219939.09      41880.307      1417149.1    
    144500   1505.9683     -232370.71      0             -219912.55      41630.137      1417320.2    
    145000   1510.5251     -232401.93      0             -219906.09      41217.388      1417491.2    
    145500   1508.4283     -232400.17      0             -219921.67      41231.724      1417662      
    146000   1495.1223     -232322.01      0             -219953.58      41534.903      1417832.7    
    146500   1496.5423     -232374.34      0             -219994.16      41248.666      1418003.2    
    147000   1497.5313     -232419.29      0             -220030.93      40888.055      1418173.5    
    147500   1498.99       -232456.12      0             -220055.7       41174.12       1418343.6    
    148000   1488.6073     -232374         0             -220059.47      41217.088      1418513.6    
    148500   1495.4325     -232412.31      0             -220041.31      40754.058      1418683.3    
    149000   1498.338      -232401.14      0             -220006.11      40931.539      1418852.9    
    149500   1500.3003     -232374.22      0             -219962.95      40790.899      1419022.3    
    150000   1499.2663     -232326.24      0             -219923.53      41217.475      1419191.5    
    150500   1507.6701     -232368.61      0             -219896.38      40992.744      1419360.5    
    151000   1506.53       -232351.05      0             -219888.25      40763.357      1419529.5    
    151500   1503.2229     -232336.66      0             -219901.22      40985.905      1419698.3    
    152000   1503.7703     -232371.17      0             -219931.2       40584.649      1419866.9    
    152500   1497.662      -232359.59      0             -219970.16      40553.559      1420035.4    
    153000   1497.4055     -232394.63      0             -220007.31      40349.387      1420203.7    
    153500   1500.431      -232444.89      0             -220032.54      40128.818      1420371.8    
    154000   1497.4285     -232425.53      0             -220038.03      40169.336      1420539.8    
    154500   1503.9539     -232463.93      0             -220022.44      40087.688      1420707.6    
    155000   1499.3857     -232393.12      0             -219989.43      40137.768      1420875.2    
    155500   1495.1316     -232315.81      0             -219947.31      40183.024      1421042.6    
    156000   1503.5135     -232346.68      0             -219908.84      40351.78       1421209.8    
    156500   1510.2936     -232376.81      0             -219882.87      40036.498      1421376.9    
    157000   1508.8672     -232358.72      0             -219876.59      40360.248      1421543.9    
    157500   1506.829      -232355.02      0             -219889.75      40168.057      1421710.7    
    158000   1501.1972     -232337.65      0             -219918.96      40076.066      1421877.4    
    158500   1500.522      -232369.41      0             -219956.32      39771.069      1422043.9    
    159000   1497.5585     -232380.07      0             -219991.49      39729.246      1422210.2    
    159500   1496.0304     -232390.06      0             -220014.12      39509.441      1422376.4    
    160000   1502.1134     -232443.43      0             -220017.17      39258.753      1422542.4    
    160500   1494.7934     -232366.52      0             -220000.81      39660.684      1422708.3    
    161000   1497.6263     -232356.49      0             -219967.34      39622.339      1422873.9    
    161500   1499.3178     -232329.46      0             -219926.33      39490.562      1423039.4    
    162000   1505.0799     -232339.26      0             -219888.46      39705.773      1423204.7    
    162500   1502.9198     -232295.92      0             -219862.98      39896.525      1423369.9    
    163000   1510.1894     -232348.72      0             -219855.64      39503.889      1423535      
    163500   1503.6134     -232307.9       0             -219869.23      39392.201      1423699.9    
    164000   1501.3612     -232317.96      0             -219897.92      39331.655      1423864.7    
    164500   1495.6971     -232308.67      0             -219935.48      39268.914      1424029.3    
    165000   1494.8532     -232337.16      0             -219970.96      39120.839      1424193.8    
    165500   1495.2397     -232363.63      0             -219994.23      39131.925      1424358.1    
    166000   1495.2707     -232368.19      0             -219998.53      38828.5        1424522.2    
    166500   1492.1973     -232327.23      0             -219982.99      39083.447      1424686.2    
    167000   1494.699      -232316.35      0             -219951.42      39297.512      1424850      
    167500   1504.9058     -232360.03      0             -219910.67      38914.53       1425013.7    
    168000   1496.4212     -232250.87      0             -219871.69      39249.572      1425177.2    
    168500   1500.8418     -232261.37      0             -219845.63      39086.933      1425340.5    
    169000   1506.5468     -232301.58      0             -219838.65      39082.932      1425503.8    
    169500   1506.3528     -232312.7       0             -219851.37      38768.246      1425666.8    
    170000   1505.9715     -232337.7       0             -219879.53      38680.672      1425829.8    
    170500   1498.5344     -232312.13      0             -219915.48      38534.541      1425992.6    
    171000   1493.4045     -232303.32      0             -219949.11      38752.478      1426155.3    
    171500   1493.1891     -232324.32      0             -219971.89      38660.236      1426317.8    
    172000   1495.0407     -232343.56      0             -219975.8       38471.852      1426480.1    
    172500   1496.7677     -232342.62      0             -219960.58      38542.511      1426642.3    
    173000   1500.4309     -232341.92      0             -219929.57      38335.572      1426804.3    
    173500   1492.9836     -232242.69      0             -219891.95      38573.68       1426966.1    
    174000   1506.7717     -232321.31      0             -219856.51      38177.066      1427127.9    
    174500   1508.3007     -232310.68      0             -219833.23      38237.43       1427289.4    
    175000   1504.5245     -232272.97      0             -219826.76      38302.665      1427450.9    
    175500   1506.7748     -232303.04      0             -219838.22      38126.678      1427612.2    
    176000   1505.3945     -232317.87      0             -219864.47      38063.252      1427773.4    
    176500   1503.6278     -232335.61      0             -219896.82      37783.919      1427934.4    
    177000   1493.5859     -232281.93      0             -219926.21      38040.196      1428095.3    
    177500   1503.4206     -232381.57      0             -219944.49      37547.793      1428256.1    
    178000   1492.8813     -232297.94      0             -219948.05      38032.721      1428416.7    
    178500   1498.2903     -232328.78      0             -219934.15      37606.817      1428577.1    
    179000   1503.3278     -232342.31      0             -219906         37766.814      1428737.4    
    179500   1493.7938     -232229.29      0             -219871.85      38120.128      1428897.5    
    180000   1503.9002     -232280.94      0             -219839.9       37936.341      1429057.5    
    180500   1501.4529     -232239.38      0             -219818.58      37796.548      1429217.4    
    181000   1505.7801     -232270.15      0             -219813.55      37906.854      1429377.2    
    181500   1504.0631     -232266.84      0             -219824.44      37672.876      1429536.8    
    182000   1494.7693     -232214.46      0             -219848.95      38060.138      1429696.4    
    182500   1499.086      -232281.59      0             -219880.37      37742.252      1429855.8    
    183000   1494.402      -232270.96      0             -219908.49      37538.749      1430015.1    
    183500   1493.7465     -232282.89      0             -219925.84      37428.743      1430174.2    
    184000   1492.2195     -232272.15      0             -219927.74      37471.486      1430333.2    
    184500   1491.9677     -232256.08      0             -219913.75      37338.623      1430492      
    185000   1500.1887     -232296.52      0             -219886.18      37352.352      1430650.7    
    185500   1497.5572     -232240.94      0             -219852.37      37341.387      1430809.3    
    186000   1498.554      -232216.5       0             -219819.68      37214.331      1430967.7    
    186500   1505.6831     -232252.65      0             -219796.86      37451.201      1431126      
    187000   1503.5862     -232228.29      0             -219789.84      37384.243      1431284.2    
    187500   1496.8119     -232183.03      0             -219800.62      37479.733      1431442.3    
    188000   1503.5612     -232263.35      0             -219825.11      37052.158      1431600.3    
    188500   1495.1531     -232224.06      0             -219855.38      37118.244      1431758.2    
    189000   1502.7722     -232315.56      0             -219883.85      36895.246      1431915.9    
    189500   1496.6972     -232285.12      0             -219903.66      36759.472      1432073.5    
    190000   1492.625      -232254.69      0             -219906.92      36864.794      1432230.9    
    190500   1496.7137     -232275.23      0             -219893.63      36711.67       1432388.2    
    191000   1505.7544     -232321.56      0             -219865.18      36442.252      1432545.4    
    191500   1496.6105     -232212.13      0             -219831.39      36895.315      1432702.4    
    192000   1501.6463     -232221.57      0             -219799.17      36949.43       1432859.3    
    192500   1499.5214     -232182.54      0             -219777.72      37108.939      1433016      
    193000   1506.2562     -232231.88      0             -219771.35      36614.483      1433172.7    
    193500   1503.7435     -232221.01      0             -219781.26      36336.255      1433329.2    
    194000   1499.7701     -232211.68      0             -219804.8       36751.918      1433485.7    
    194500   1498.4103     -232230.64      0             -219835.01      36755.875      1433642      
    195000   1498.5408     -232261.07      0             -219864.36      36386.401      1433798.1    
    195500   1491.6093     -232223.25      0             -219883.88      36580.135      1433954.2    
    196000   1492.4561     -232234         0             -219887.63      36496.778      1434110.1    
    196500   1498.524      -232271.11      0             -219874.54      36344.1        1434265.9    
    197000   1497.6893     -232236.87      0             -219847.21      36155.367      1434421.5    
    197500   1499.8152     -232219.72      0             -219812.47      36487.761      1434577      
    198000   1500.5056     -232193.66      0             -219780.7       36465.792      1434732.4    
    198500   1502.829      -232192.06      0             -219759.87      36395.363      1434887.7    
    199000   1499.4897     -232158.47      0             -219753.91      36452.046      1435042.9    
    199500   1498.8382     -232163.63      0             -219764.46      36222.892      1435198      
    200000   1504.5718     -232235.06      0             -219788.46      36061.183      1435353      
    200500   1499.9463     -232226.42      0             -219818.09      36025.519      1435507.8    
    201000   1499.2075     -232247.42      0             -219845.19      35795.643      1435662.6    
    201500   1499.6663     -232268.73      0             -219862.71      35645.208      1435817.2    
    202000   1494.1948     -232225.51      0             -219864.76      35585.914      1435971.6    
    202500   1495.2775     -232219.36      0             -219849.65      35720.783      1436126      
    203000   1498.5832     -232218.79      0             -219821.73      35696.509      1436280.2    
    203500   1504.2976     -232231.68      0             -219787.34      35707.96       1436434.2    
    204000   1506.3637     -232216.42      0             -219755         35905.51       1436588.2    
    204500   1502.1439     -232160.81      0             -219734.3       35623.683      1436742.1    
    205000   1509.8902     -232220.29      0             -219729.69      35540.485      1436895.8    
    205500   1501.9694     -232166.53      0             -219741.46      35814.747      1437049.4    
    206000   1504.7691     -232214.64      0             -219766.41      35485.308      1437203      
    206500   1496.0299     -232174.03      0             -219798.1       35536.594      1437356.4    
    207000   1501.3404     -232245.94      0             -219826.07      35123.645      1437509.7    
    207500   1491.1158     -232178.39      0             -219843.1       35368.303      1437662.9    
    208000   1495.2195     -232213.16      0             -219843.92      35195.304      1437815.9    
    208500   1493.0818     -232179.72      0             -219828.17      35408.145      1437968.8    
    209000   1500.6206     -232213.31      0             -219799.4       35185.659      1438121.5    
    209500   1497.6137     -232154.65      0             -219765.61      35397.106      1438274.2    
    210000   1502.8675     -232168.03      0             -219735.53      35405.037      1438426.7    
    210500   1507.3738     -232185.85      0             -219716.07      35051.653      1438579.1    
    211000   1504.8296     -232161.96      0             -219713.23      35270.442      1438731.4    
    211500   1505.5131     -232178.82      0             -219724.43      35041.421      1438883.6    
    212000   1509.4038     -232233.9       0             -219747.33      34784.032      1439035.7    
    212500   1502.5592     -232204.44      0             -219774.49      34965.416      1439187.7    
    213000   1495.3917     -232169.96      0             -219799.3       35004.289      1439339.6    
    213500   1495.4264     -232186.95      0             -219816.01      34782.718      1439491.3    
    214000   1494.0564     -232179.96      0             -219820.35      34856.153      1439643      
    214500   1499.213      -232211.23      0             -219808.96      34778.673      1439794.5    
    215000   1500.0157     -232192.05      0             -219783.14      34637.711      1439945.8    
    215500   1500.3103     -232162.27      0             -219750.93      34586.026      1440097.1    
    216000   1499.7006     -232127.44      0             -219721.14      34807.848      1440248.2    
    216500   1502.4103     -232128.33      0             -219699.61      34781.184      1440399.2    
    217000   1505.5662     -232146.61      0             -219691.78      35118.433      1440550.2    
    217500   1504.5225     -232147.12      0             -219700.93      34497.775      1440701      
    218000   1499.5121     -232127.97      0             -219723.22      34691.018      1440851.8    
    218500   1503.205      -232187.19      0             -219751.9       34405.423      1441002.4    
    219000   1495.5679     -232151.08      0             -219778.96      34476.606      1441152.9    
    219500   1499.6407     -232201.74      0             -219795.93      34247.527      1441303.3    
    220000   1495.9632     -232173.39      0             -219798         34357.732      1441453.6    
    220500   1488.0244     -232093.53      0             -219783.82      34243.828      1441603.7    
    221000   1503.3101     -232192.54      0             -219756.38      34096.586      1441753.8    
    221500   1499.1403     -232125.78      0             -219724.11      34409.753      1441903.7    
    222000   1494.6687     -232060.24      0             -219695.57      34586.327      1442053.5    
    222500   1500.6144     -232091.63      0             -219677.77      34491.44       1442203.2    
    223000   1501.8838     -232098.76      0             -219674.4       34299.916      1442352.9    
    223500   1498.656      -232084.1       0             -219686.43      34311.864      1442502.4    
    224000   1500.397      -232121.27      0             -219709.21      34137.811      1442651.8    
    224500   1499.4849     -232141.03      0             -219736.51      33839.506      1442801.1    
    225000   1498.5736     -232157.42      0             -219760.44      33905.832      1442950.3    
    225500   1488.3816     -232086.56      0             -219773.89      34130.997      1443099.4    
    226000   1490.6007     -232104.67      0             -219773.65      33755.073      1443248.4    
    226500   1489.1152     -232076.36      0             -219757.63      33894.26       1443397.2    
    227000   1498.1272     -232123.07      0             -219729.78      33872.955      1443545.9    
    227500   1499.933      -232106.98      0             -219698.76      33889.084      1443694.5    
    228000   1503.4569     -232109.52      0             -219672.15      33604.341      1443843      
    228500   1505.3101     -232109.17      0             -219656.47      33754.706      1443991.3    
    229000   1503.9262     -232096.23      0             -219654.97      33824.501      1444139.6    
    229500   1503.9711     -232108.97      0             -219667.34      33792.17       1444287.8    
    230000   1500.8419     -232105.4       0             -219689.66      33733.97       1444435.9    
    230500   1498.1734     -232109.4       0             -219715.73      33670.101      1444584      
    231000   1494.443      -232100.87      0             -219738.06      33403.521      1444731.9    
    231500   1494.7414     -232115.8       0             -219750.52      33212.653      1444879.6    
    232000   1501.0658     -232166.45      0             -219748.85      33144.856      1445027.3    
    232500   1496.2385     -232110.85      0             -219733.18      33399.958      1445174.8    
    233000   1500.8896     -232122.84      0             -219706.7       33271.319      1445322.2    
    233500   1499.0231     -232077.67      0             -219676.98      33499.949      1445469.5    
    234000   1505.0536     -232101.78      0             -219651.2       33154.325      1445616.7    
    234500   1500.8435     -232051.44      0             -219635.69      33438.581      1445763.8    
    235000   1505.8784     -232091.71      0             -219634.3       33147.851      1445910.8    
    235500   1504.2606     -232092.08      0             -219648.05      33261.607      1446057.8    
    236000   1503.0995     -232106.84      0             -219672.42      32948.251      1446204.6    
    236500   1500.773      -232116.14      0             -219700.97      32847.767      1446351.3    
    237000   1493.8878     -232082.23      0             -219724.01      33184.057      1446497.9    
    237500   1500.2027     -232145.47      0             -219735.01      32695.364      1446644.4    
    238000   1499.8065     -232137.15      0             -219729.97      32357.833      1446790.8    
    238500   1491.3611     -232046.22      0             -219708.9       33100.837      1446937.1    
    239000   1492.7972     -232025.62      0             -219676.42      32884.723      1447083.2    
    239500   1499.5297     -232048.03      0             -219643.14      32915.178      1447229.2    
    240000   1505.342      -232070.58      0             -219617.61      33063.171      1447375.1    
    240500   1500.1918     -232017.13      0             -219606.76      33168.149      1447521      
    241000   1504.7937     -232060.34      0             -219611.9       33085.605      1447666.8    
    241500   1499.6201     -232038.69      0             -219633.05      33067.545      1447812.5    
    242000   1500.1575     -232072.68      0             -219662.6       32583.937      1447958.1    
    242500   1492.6635     -232039.62      0             -219691.53      32742.04       1448103.6    
    243000   1497.0245     -232096.43      0             -219712.27      32555.464      1448249      
    243500   1495.6145     -232090.44      0             -219717.94      32324.752      1448394.2    
    244000   1494.7276     -232071.93      0             -219706.77      32356.618      1448539.4    
    244500   1500.7958     -232096.43      0             -219681.07      32341.751      1448684.4    
    245000   1500.7927     -232062.89      0             -219647.55      32228.816      1448829.4    
    245500   1507.3336     -232084.65      0             -219615.2       32195.843      1448974.2    
    246000   1505.4642     -232045.86      0             -219591.87      32326.619      1449118.9    
    246500   1505.5118     -232037.78      0             -219583.4       32161.487      1449263.6    
    247000   1504.7326     -232039.16      0             -219591.23      32501.921      1449408.2    
    247500   1494.7737     -231977.98      0             -219612.44      32441.603      1449552.6    
    248000   1497.0064     -232024.97      0             -219640.96      32322.005      1449697      
    248500   1497.5391     -232056.79      0             -219668.37      32216.837      1449841.3    
    249000   1500.8359     -232103.28      0             -219687.59      31803.849      1449985.5    
    249500   1499.6246     -232099.39      0             -219693.72      31888.867      1450129.6    
    250000   1500.5872     -232096.32      0             -219682.68      31890.335      1450273.6    
    250500   1498.2981     -232052.28      0             -219657.58      31823.424      1450417.4    
    251000   1497.7092     -232016.26      0             -219626.44      32106.983      1450561.2    
    251500   1500.1957     -232006.9       0             -219596.5       32091.366      1450704.9    
    252000   1500.3187     -231987.21      0             -219575.79      32294.658      1450848.5    
    252500   1500.284      -231979.29      0             -219568.16      32069.099      1450992      
    253000   1506.0307     -232033.18      0             -219574.51      31875.131      1451135.4    
    253500   1502.7948     -232028.44      0             -219596.54      31776.483      1451278.7    
    254000   1494.3848     -231989.2       0             -219626.87      31939.93       1451422      
    254500   1491.7472     -231995.91      0             -219655.4       31987.191      1451565.1    
    255000   1493.5237     -232029.21      0             -219674         31520.492      1451708.1    
    255500   1497.554      -232064.95      0             -219676.41      31429.04       1451851.1    
    256000   1496.3783     -232036.44      0             -219657.62      31380.959      1451993.8    
    256500   1499.5691     -232025.31      0             -219620.09      31622.711      1452136.5    
    257000   1496.2796     -231960.82      0             -219582.82      31815.122      1452279.1    
    257500   1500.0104     -231970.38      0             -219561.51      31739.958      1452421.6    
    258000   1502.3268     -231983.93      0             -219555.9       31391.159      1452564      
    258500   1501.3559     -231983.26      0             -219563.26      31565.307      1452706.4    
    259000   1499.9432     -231991.84      0             -219583.53      31676.422      1452848.6    
    259500   1503.4048     -232058.16      0             -219621.21      31044.568      1452990.7    
    260000   1490.0211     -232010.37      0             -219684.14      31345.724      1453132.8    
    260500   1489.1645     -232050.7       0             -219731.56      31061.91       1453274.7    
    261000   1492.5973     -232081.61      0             -219734.07      30713.598      1453416.5    
    261500   1494.2129     -232068.86      0             -219707.95      30788.628      1453558.2    
    262000   1491.9799     -232019.6       0             -219677.17      31004.265      1453699.7    
    262500   1496.4425     -232029.51      0             -219650.16      31097.779      1453841.1    
    263000   1498.2804     -232015.6       0             -219621.05      30987.83       1453982.4    
    263500   1495.7854     -231965.03      0             -219591.11      31071.992      1454123.6    
    264000   1504.0879     -232007.91      0             -219565.32      31033.843      1454264.7    
    264500   1498.2187     -231941.02      0             -219546.97      31167.354      1454405.7    
    265000   1505.105      -231987.97      0             -219536.96      31047.013      1454546.6    
    265500   1505.7272     -231992.23      0             -219536.07      30962.322      1454687.4    
    266000   1501.5196     -231967.23      0             -219545.88      31064.863      1454828.2    
    266500   1498.3635     -231972.28      0             -219577.04      30821.076      1454968.8    
    267000   1492.788      -231978.94      0             -219629.82      30758.869      1455109.4    
    267500   1490.6614     -231999.72      0             -219668.2       30847.448      1455249.9    
    268000   1491.4706     -232013.95      0             -219675.73      30415.554      1455390.2    
    268500   1494.65       -232015.3       0             -219650.77      30394.661      1455530.4    
    269000   1496.4344     -231981.52      0             -219602.24      30602.004      1455670.5    
    269500   1498.0473     -231960.15      0             -219567.52      30798.494      1455810.5    
    270000   1503.7862     -231994.22      0             -219554.12      30464.045      1455950.4    
    270500   1500.3331     -231959.44      0             -219547.9       30840.491      1456090.2    
    271000   1499.2231     -231948.3       0             -219545.95      30466.416      1456229.9    
    271500   1499.669      -231951.03      0             -219544.99      30731.093      1456369.6    
    272000   1503.7015     -231984.19      0             -219544.79      30239.132      1456509.2    
    272500   1498.7545     -231940.68      0             -219542.2       30862.95       1456648.7    
    273000   1498.9663     -231936.33      0             -219536.1       30580.41       1456788.1    
    273500   1503.4913     -231961.23      0             -219523.57      30332.123      1456927.4    
    274000   1503.4367     -231945.23      0             -219508.02      30443.916      1457066.7    
    274500   1510.8068     -231992.83      0             -219494.65      30305.334      1457205.8    
    275000   1509.3892     -231976.16      0             -219489.71      30283.787      1457345      
    275500   1507.3757     -231966.57      0             -219496.77      30283.301      1457484      
    276000   1503.8639     -231960.02      0             -219519.28      30394.352      1457623      
    276500   1497.8982     -231948.75      0             -219557.35      30194.41       1457761.8    
    277000   1500.9921     -232012.2       0             -219595.21      29856.811      1457900.6    
    277500   1499.6201     -232022.8       0             -219617.16      29591.007      1458039.3    
    278000   1493.5175     -231970.07      0             -219614.91      29886.504      1458177.9    
    278500   1491.2551     -231912.89      0             -219576.45      29951.307      1458316.4    
    279000   1506.1604     -231970.29      0             -219510.55      30019.003      1458454.7    
    279500   1501.4581     -231902.6       0             -219481.76      30043.597      1458593      
    280000   1496.8429     -231862.56      0             -219479.9       30301.512      1458731.2    
    280500   1497.9129     -231880.38      0             -219488.87      30184.33       1458869.4    
    281000   1498.256      -231900.29      0             -219505.93      30139.521      1459007.4    
    281500   1498.4813     -231924.22      0             -219528         30020.156      1459145.4    
    282000   1495.1585     -231920.14      0             -219551.42      29856.885      1459283.3    
    282500   1499.7069     -231977.24      0             -219570.88      29580.218      1459421.1    
    283000   1495.5502     -231953.53      0             -219581.56      29489.938      1459558.8    
    283500   1502.4998     -231999.83      0             -219570.37      29387.773      1459696.4    
    284000   1499.3788     -231929.16      0             -219525.52      29921.144      1459833.9    
    284500   1502.0838     -231901.66      0             -219475.64      29518.822      1459971.3    
    285000   1506.9505     -231917.61      0             -219451.33      29887.751      1460108.6    
    285500   1507.3384     -231915.91      0             -219446.42      29647.199      1460245.8    
    286000   1497.3662     -231842.87      0             -219455.87      29988.185      1460383      
    286500   1505.4118     -231933.46      0             -219479.91      29657.889      1460520.1    
    287000   1499.844      -231924.02      0             -219516.53      29533.908      1460657.2    
    287500   1497.222      -231943.24      0             -219557.44      29309.575      1460794.1    
    288000   1490.0766     -231915.47      0             -219588.78      29315.761      1460930.9    
    288500   1497.0072     -231985.62      0             -219601.6       28931.866      1461067.6    
    289000   1496.5886     -231956.04      0             -219575.48      28949.858      1461204.3    
    289500   1495.9432     -231875.09      0             -219499.87      29475.567      1461340.8    
    290000   1498.5149     -231853.38      0             -219456.88      29482.892      1461477.2    
    290500   1499.2008     -231842.6       0             -219440.43      29412.936      1461613.5    
    291000   1499.1698     -231838.45      0             -219436.54      29528.226      1461749.8    
    291500   1498.6613     -231841.6       0             -219443.9       29554.692      1461886      
    292000   1503.7923     -231901.17      0             -219461.02      29238.556      1462022.2    
    292500   1496.5383     -231867.29      0             -219487.15      29293.972      1462158.2    
    293000   1493.4327     -231871.4       0             -219516.95      29103.69       1462294.2    
    293500   1490.5878     -231872.1       0             -219541.18      29124.628      1462430.1    
    294000   1497.7775     -231942.98      0             -219552.59      28763.223      1462565.9    
    294500   1495.3441     -231909.06      0             -219538.8       28918.898      1462701.5    
    295000   1499.5821     -231889.19      0             -219483.87      29032.622      1462837.1    
    295500   1506.4637     -231894.02      0             -219431.77      28801.449      1462972.6    
    296000   1504.1844     -231855.3       0             -219411.9       29056.316      1463108.1    
    296500   1503.06       -231844.01      0             -219409.91      28867.907      1463243.4    
    297000   1496.4479     -231799.96      0             -219420.56      29221.354      1463378.7    
    297500   1501.7966     -231867.35      0             -219443.71      29094.99       1463514      
    298000   1499.878      -231883.61      0             -219475.84      28819.548      1463649.1    
    298500   1497.0211     -231893.77      0             -219509.63      28519.299      1463784.2    
    299000   1489.702      -231861.73      0             -219538.14      28680.298      1463919.1    
    299500   1489.7606     -231879.39      0             -219555.32      28563.449      1464054      
    300000   1491.4849     -231882.82      0             -219544.48      28597.702      1464188.7    
    300500   1500.1811     -231898.35      0             -219488.07      28430.862      1464323.3    
    301000   1496.7908     -231815.66      0             -219433.43      28654.897      1464457.8    
    301500   1498.9452     -231806.93      0             -219406.87      28759.906      1464592.3    
    302000   1499.1135     -231797.07      0             -219395.63      28891.526      1464726.7    
    302500   1502.0641     -231821.64      0             -219395.78      28676.398      1464861      
    303000   1501.9202     -231832.12      0             -219407.45      28659.801      1464995.2    
    303500   1497.8935     -231822.22      0             -219430.86      28707.279      1465129.4    
    304000   1492.5248     -231810.6       0             -219463.66      28443.579      1465263.5    
    304500   1494.5747     -231862.03      0             -219498.13      28105.732      1465397.6    
    305000   1497.4057     -231909.11      0             -219521.8       28176.65       1465531.5    
    305500   1489.2139     -231841.22      0             -219521.67      28197.252      1465665.3    
    306000   1489.9867     -231803.27      0             -219477.32      28421.435      1465799      
    306500   1499.3428     -231814.13      0             -219410.78      28370.025      1465932.6    
    307000   1499.1801     -231784.06      0             -219382.06      28433.828      1466066.1    
    307500   1501.6177     -231795.78      0             -219373.62      28275.91       1466199.6    
    308000   1502.6352     -231808.77      0             -219378.19      28199.889      1466333      
    308500   1499.6816     -231798.4       0             -219392.26      28230.913      1466466.3    
    309000   1497.1236     -231799.57      0             -219414.59      28172.739      1466599.6    
    309500   1495.9595     -231818.89      0             -219443.53      27914.518      1466732.8    
    310000   1492.9475     -231824.58      0             -219474.14      28074.992      1466865.9    
    310500   1490.2982     -231825.64      0             -219497.12      27934.058      1466998.9    
    311000   1494.6627     -231864.93      0             -219500.3       27855.803      1467131.8    
    311500   1494.9114     -231829.86      0             -219463.17      27933.658      1467264.6    
    312000   1497.2526     -231785.37      0             -219399.32      27972.817      1467397.3    
    312500   1500.9919     -231782.3       0             -219365.32      27982.837      1467530      
    313000   1503.82       -231792.48      0             -219352.1       28052.453      1467662.6    
    313500   1506.9847     -231819.56      0             -219353         27985.442      1467795.1    
    314000   1502.0053     -231788.9       0             -219363.53      28111.968      1467927.5    
    314500   1501.7152     -231806.49      0             -219383.52      27557.698      1468059.9    
    315000   1499.2875     -231815.6       0             -219412.71      27728.763      1468192.2    
    315500   1497.4799     -231835.2       0             -219447.26      27597.223      1468324.4    
    316000   1491.9217     -231817.88      0             -219475.93      27709.657      1468456.5    
    316500   1493.379      -231840.02      0             -219486.01      27305.952      1468588.5    
    317000   1491.2858     -231796.43      0             -219459.74      27649.451      1468720.4    
    317500   1498.1492     -231786.45      0             -219392.98      27729.597      1468852.2    
    318000   1503.4826     -231787.56      0             -219349.97      27594.798      1468983.9    
    318500   1501.0977     -231751.67      0             -219333.81      27444.174      1469115.5    
    319000   1502.3351     -231759.82      0             -219331.72      27413.274      1469247.1    
    319500   1504.8417     -231787.81      0             -219338.97      27691.843      1469378.6    
    320000   1502.0494     -231781.04      0             -219355.3       27505.934      1469510.1    
    320500   1497.9774     -231772.88      0             -219380.83      27276.151      1469641.4    
    321000   1494.5552     -231776.63      0             -219412.89      27506.748      1469772.7    
    321500   1502.3978     -231870.68      0             -219442.06      26775.878      1469903.9    
    322000   1489.1209     -231777.92      0             -219459.14      27182.662      1470034.9    
    322500   1490.4599     -231778.38      0             -219448.52      26958.825      1470165.9    
    323000   1495.8327     -231767.1       0             -219392.8       27269.234      1470296.7    
    323500   1505.4596     -231791.59      0             -219337.64      27207.926      1470427.5    
    324000   1499.4498     -231719.15      0             -219314.92      27710.216      1470558.2    
    324500   1498.3654     -231704.42      0             -219309.16      27671.461      1470688.8    
    325000   1504.255      -231756.75      0             -219312.77      27271.854      1470819.4    
    325500   1500.6419     -231740.07      0             -219325.98      27298.556      1470949.9    
    326000   1500.1161     -231758.6       0             -219348.86      26957.625      1471080.4    
    326500   1501.4211     -231801.7       0             -219381.17      26757.483      1471210.7    
    327000   1499.1027     -231817.35      0             -219416         26725.322      1471341      
    327500   1490.938      -231774.58      0             -219440.77      26852.299      1471471.2    
    328000   1498.5032     -231838.36      0             -219441.96      26424.754      1471601.2    
    328500   1496.9458     -231782.11      0             -219398.6       26883.228      1471731.2    
    329000   1509.3262     -231818.64      0             -219332.71      26621.709      1471861.1    
    329500   1504.777      -231749.89      0             -219301.59      26741.625      1471990.9    
    330000   1508.8657     -231772.64      0             -219290.51      26823.188      1472120.6    
    330500   1506.6796     -231754.75      0             -219290.71      26838.422      1472250.3    
    331000   1496.8663     -231682.49      0             -219299.63      26969.121      1472379.9    
    331500   1504.6056     -231764.67      0             -219317.79      26575.706      1472509.4    
    332000   1497.5245     -231732.85      0             -219344.55      26887.367      1472638.9    
    332500   1494.6759     -231740.1       0             -219375.36      26675.174      1472768.3    
    333000   1491.8097     -231741.43      0             -219400.41      26747.959      1472897.5    
    333500   1492.406      -231755.41      0             -219409.45      26408.472      1473026.7    
    334000   1495.6499     -231758.94      0             -219386.15      26605.526      1473155.8    
    334500   1501.7427     -231748.54      0             -219325.35      26616.111      1473284.8    
    335000   1502.0624     -231706.33      0             -219280.48      26796.329      1473413.8    
    335500   1498.0413     -231656.93      0             -219264.35      26886.474      1473542.6    
    336000   1499.121      -231664.06      0             -219262.55      26761.234      1473671.5    
    336500   1495.9953     -231648.71      0             -219273.06      26858.426      1473800.2    
    337000   1501.3815     -231712.99      0             -219292.78      26504.221      1473928.9    
    337500   1498.7603     -231720.79      0             -219322.27      26364.548      1474057.5    
    338000   1495.6758     -231729.76      0             -219356.75      26292.007      1474186.1    
    338500   1490.3513     -231717.52      0             -219388.56      26198.411      1474314.5    
    339000   1495.6684     -231779.3       0             -219406.35      26053.498      1474442.9    
    339500   1488.7049     -231708.49      0             -219393.15      26418.717      1474571.2    
    340000   1493.7936     -231688.03      0             -219330.6       26299.733      1474699.3    
    340500   1497.2708     -231663.42      0             -219277.22      26465.698      1474827.4    
    341000   1505.0045     -231704.49      0             -219254.31      26404.293      1474955.4    
    341500   1500.2716     -231655.18      0             -219244.16      26410.765      1475083.4    
    342000   1500.2858     -231655.87      0             -219244.73      26217.551      1475211.3    
    342500   1496.5437     -231636.11      0             -219255.92      26478.612      1475339.1    
    343000   1502.1962     -231705.31      0             -219278.36      25953.672      1475466.9    
    343500   1492.4473     -231656.16      0             -219309.86      26190.614      1475594.5    
    344000   1496.6807     -231723.97      0             -219342.65      25966.438      1475722.2    
    344500   1493.2071     -231718.91      0             -219366.32      25907.641      1475849.7    
    345000   1487.1618     -231671.54      0             -219368.97      26190.102      1475977.1    
    345500   1494.2134     -231690.21      0             -219329.3       26011.202      1476104.4    
    346000   1503.5384     -231700.7       0             -219262.65      25961.858      1476231.7    
    346500   1499.757      -231637.03      0             -219230.26      26082.174      1476358.9    
    347000   1501.954      -231644.62      0             -219219.68      26189.92       1476486      
    347500   1504.7903     -231670.89      0             -219222.48      25893.84       1476613.1    
    348000   1501.5323     -231656.24      0             -219234.78      26055.836      1476740.1    
    348500   1496.0725     -231632.74      0             -219256.45      25835.285      1476867      
    349000   1499.4269     -231688.81      0             -219284.77      25843.902      1476993.9    
    349500   1491.0378     -231651.11      0             -219316.47      25959.856      1477120.7    
    350000   1495.2404     -231712.36      0             -219342.96      25342.576      1477247.4    
    350500   1496.2565     -231732.3       0             -219354.49      25577.293      1477374      
    351000   1491.2648     -231667.69      0             -219331.17      25520.7        1477500.5    
    351500   1499.0176     -231667.17      0             -219266.51      25725.732      1477627      
    352000   1499.4832     -231626.74      0             -219222.24      25653.369      1477753.3    
    352500   1500.473      -231615.87      0             -219203.18      25900.289      1477879.6    
    353000   1508.4771     -231675.83      0             -219196.92      25449.457      1478005.8    
    353500   1500.7542     -231615.67      0             -219200.65      25673.634      1478132      
    354000   1501.704      -231636.86      0             -219213.99      25851.116      1478258.1    
    354500   1500.6477     -231652.76      0             -219238.62      25474.167      1478384.1    
    355000   1496.5478     -231654.49      0             -219274.27      25440.26       1478510.1    
    355500   1489.3692     -231630.02      0             -219309.18      25510.169      1478635.9    
    356000   1497.6505     -231719.36      0             -219330.01      24867.842      1478761.7    
    356500   1489.4258     -231645.38      0             -219324.07      25149.385      1478887.4    
    357000   1503.137      -231704.11      0             -219269.38      24929.323      1479013      
    357500   1497.2861     -231593.25      0             -219206.92      25523.019      1479138.5    
    358000   1501.961      -231607.72      0             -219182.72      25599.877      1479264      
    358500   1503.8668     -231616.64      0             -219175.87      25048.594      1479389.4    
    359000   1500.0589     -231589.24      0             -219179.97      25342.808      1479514.7    
    359500   1502.4795     -231625.04      0             -219195.75      25306.283      1479640      
    360000   1498.5104     -231616.84      0             -219220.38      25236.498      1479765.2    
    360500   1493.0159     -231600.43      0             -219249.43      25255.617      1479890.3    
    361000   1493.9291     -231634.23      0             -219275.67      25181.649      1480015.4    
    361500   1493.439      -231648.85      0             -219294.35      25120.611      1480140.4    
    362000   1490.9564     -231626.45      0             -219292.48      25244.58       1480265.3    
    362500   1496.6539     -231631.76      0             -219250.66      24760.251      1480390.1    
    363000   1499.3497     -231592.76      0             -219189.36      25189.892      1480514.9    
    363500   1501.6808     -231581.17      0             -219158.48      24976.417      1480639.6    
    364000   1505.8169     -231604.34      0             -219147.44      25057.684      1480764.2    
    364500   1500.8489     -231564.64      0             -219148.84      25053.126      1480888.8    
    365000   1502.8554     -231595.6       0             -219163.2       25132.731      1481013.3    
    365500   1504.0243     -231631.64      0             -219189.57      24695.595      1481137.7    
    366000   1494.7688     -231591.55      0             -219226.05      24835.992      1481262.1    
    366500   1493.6435     -231617.76      0             -219261.56      24869.429      1481386.4    
    367000   1492.2658     -231628.61      0             -219283.81      24597.697      1481510.6    
    367500   1494.3627     -231642.12      0             -219279.98      24501.851      1481634.7    
    368000   1493.9848     -231583.36      0             -219224.34      24786.474      1481758.8    
    368500   1499.9461     -231567.55      0             -219159.22      24981.144      1481882.7    
    369000   1502.6423     -231564.94      0             -219134.3       24682.345      1482006.6    
    369500   1503.9631     -231568.76      0             -219127.19      24642.696      1482130.4    
    370000   1497.6392     -231521.19      0             -219131.94      24899.289      1482254.2    
    370500   1499.5819     -231554.04      0             -219148.72      24803.794      1482377.9    
    371000   1500.1171     -231586.52      0             -219176.77      24590.543      1482501.5    
    371500   1497.0717     -231592.21      0             -219207.65      24465.722      1482625.1    
    372000   1498.0605     -231626.42      0             -219233.69      24180.29       1482748.6    
    372500   1492.0157     -231587.8       0             -219245.07      24572.376      1482872      
    373000   1498.845      -231627.94      0             -219228.71      24100.377      1482995.3    
    373500   1497.7406     -231558.22      0             -219168.13      24355.467      1483118.5    
    374000   1503.2185     -231551.66      0             -219116.25      24469.128      1483241.6    
    374500   1501.1424     -231516.68      0             -219098.45      24983.713      1483364.7    
    375000   1503.0259     -231533.39      0             -219099.58      24519.826      1483487.8    
    375500   1501.893      -231538.64      0             -219114.2       24568.957      1483610.8    
    376000   1499.3446     -231544.15      0             -219140.79      24296.222      1483733.7    
    376500   1493.3468     -231528.26      0             -219174.52      24686.343      1483856.6    
    377000   1489.1555     -231523.42      0             -219204.35      24461.047      1483979.4    
    377500   1496.3086     -231601.89      0             -219223.65      24085.577      1484102.1    
    378000   1486.3822     -231521.73      0             -219225.6       24332.458      1484224.8    
    378500   1497.2388     -231570.98      0             -219185.04      24248.002      1484347.3    
    379000   1505.708      -231574.97      0             -219118.97      24004.241      1484469.8    
    379500   1504.5569     -231532.22      0             -219085.74      24496.542      1484592.2    
    380000   1506.5015     -231537.88      0             -219075.32      24253.297      1484714.6    
    380500   1501.5414     -231501.9       0             -219080.37      24438.867      1484836.9    
    381000   1508.0366     -231575.71      0             -219100.45      23865.652      1484959.2    
    381500   1496.4016     -231512.63      0             -219133.61      24112.456      1485081.4    
[...]
   3908500   1497.8855     -228262.34      0             -215871.05     -108.18644      1648383.2    
   3909000   1502.6941     -228294.78      0             -215863.71     -288.99875      1648382.9    
   3909500   1501.6373     -228286.69      0             -215864.36     -168.24051      1648382.5    
   3910000   1502.3688     -228309.77      0             -215881.39     -175.35619      1648382.1    
   3910500   1499.6232     -228326.4       0             -215920.73     -63.327502      1648381.8    
   3911000   1494.4178     -228322.98      0             -215960.38     -212.25748      1648381.4    
   3911500   1488.3247     -228293.88      0             -215981.69     -0.38399028     1648381      
   3912000   1493.136      -228332.61      0             -215980.61     -179.44856      1648380.6    
   3912500   1496.5093     -228333.71      0             -215953.8      -90.157472      1648380.2    
   3913000   1494.7463     -228264.58      0             -215899.26      244.87511      1648379.8    
   3913500   1509.0517     -228339.87      0             -215856.21     -148.49521      1648379.4    
   3914000   1502.0487     -228273.34      0             -215847.61      169.59115      1648379      
   3914500   1504.0122     -228296.67      0             -215854.69     -221.93773      1648378.7    
   3915000   1502.328      -228297.55      0             -215869.51      120.32906      1648378.3    
   3915500   1499.8687     -228297.57      0             -215889.88      105.21716      1648377.9    
   3916000   1497.1599     -228297.53      0             -215912.24      132.66943      1648377.5    
   3916500   1494.0427     -228291.93      0             -215932.43      130.12767      1648377.2    
   3917000   1495.092      -228317.72      0             -215949.54     -34.382245      1648376.8    
   3917500   1496.0369     -228345.41      0             -215969.41      176.07685      1648376.4    
   3918000   1494.8501     -228365.15      0             -215998.97      56.946235      1648376      
   3918500   1486.0642     -228321.3       0             -216027.8      -215.21782      1648375.6    
   3919000   1491.5568     -228368.09      0             -216029.15     -240.50476      1648375.2    
   3919500   1495.5747     -228363.26      0             -215991.09     -253.55848      1648374.8    
   3920000   1494.2534     -228295.39      0             -215934.15      185.18899      1648374.4    
   3920500   1506.8462     -228361.3       0             -215895.88     -84.124233      1648373.9    
   3921000   1501.6549     -228299.78      0             -215877.31     -235.99725      1648373.5    
   3921500   1502.0553     -228295.5       0             -215869.72     -20.818126      1648373      
   3922000   1505.4318     -228327.46      0             -215873.75      2.8538275      1648372.5    
   3922500   1502.9341     -228324.27      0             -215891.21      74.42984       1648372.1    
   3923000   1495.8305     -228298.45      0             -215924.16     -239.69509      1648371.7    
   3923500   1490.6887     -228296.13      0             -215964.37      222.18126      1648371.3    
   3924000   1498.844      -228394.72      0             -215995.51     -86.929353      1648370.9    
   3924500   1486.4751     -228302.8       0             -216005.9       63.369172      1648370.4    
   3925000   1499.0029     -228382.19      0             -215981.66     -263.40027      1648369.9    
   3925500   1500.2259     -228314.39      0             -215903.74     -15.404957      1648369.4    
   3926000   1504.0098     -228298.5       0             -215856.55      8.7187393      1648369      
   3926500   1500.6922     -228259.58      0             -215845.07      96.298771      1648368.5    
   3927000   1505.172      -228301.1       0             -215849.54      26.24304       1648368      
   3927500   1492.7857     -228215.17      0             -215866.07     -76.370461      1648367.5    
   3928000   1501.9338     -228317.65      0             -215892.88     -104.32844      1648367.1    
   3928500   1494.8183     -228292.97      0             -215927.06      1.364612       1648366.6    
   3929000   1493.9066     -228312.4       0             -215954.03      17.47573       1648366.1    
   3929500   1495.0424     -228331.42      0             -215963.65      97.200177      1648365.6    
   3930000   1494.5761     -228316.34      0             -215952.43     -289.12811      1648365.1    
   3930500   1497.4483     -228285.75      0             -215898.08      266.29116      1648364.6    
   3931000   1507.8008     -228305.17      0             -215831.86     -27.384251      1648364      
   3931500   1506.2513     -228273.44      0             -215812.94      73.158207      1648363.5    
   3932000   1500.5464     -228236.6       0             -215823.3       2.8283386      1648363      
   3932500   1502.7297     -228281.35      0             -215849.98      204.69695      1648362.4    
   3933000   1504.0157     -228328.27      0             -215886.27      185.34034      1648361.9    
   3933500   1502.9684     -228350.8       0             -215917.46     -40.593527      1648361.4    
   3934000   1497.6225     -228325.65      0             -215936.54     -32.359709      1648361      
   3934500   1497.8792     -228335.32      0             -215944.08      1.9340064      1648360.5    
   3935000   1501.7598     -228365.35      0             -215942.01     -60.681261      1648360      
   3935500   1503.0179     -228365.08      0             -215931.34      260.62032      1648359.5    
   3936000   1500.5615     -228325.71      0             -215912.29     -58.440538      1648359.1    
   3936500   1502.2615     -228301.84      0             -215874.36      23.043986      1648358.6    
   3937000   1509.2971     -228285.56      0             -215799.87      312.82723      1648358.2    
   3937500   1508.5922     -228239.56      0             -215759.7       460.98768      1648357.8    
   3938000   1509.5838     -228260.83      0             -215772.77      305.099        1648357.4    
   3938500   1508.6667     -228291.85      0             -215811.37      76.846936      1648357.1    
   3939000   1500.2488     -228261.73      0             -215850.89      447.90028      1648356.9    
   3939500   1503.5282     -228321.42      0             -215883.45     -132.5021       1648356.6    
   3940000   1499.9345     -228317.45      0             -215909.22      182.94732      1648356.4    
   3940500   1496.5515     -228310.14      0             -215929.89      85.379997      1648356.2    
   3941000   1496.2723     -228322.4       0             -215944.46     -4.9596493      1648355.9    
   3941500   1497.0629     -228334.51      0             -215950.03     -295.80306      1648355.7    
   3942000   1498.6236     -228338.9       0             -215941.5      -227.01058      1648355.5    
   3942500   1502.3494     -228336.7       0             -215908.48      239.30326      1648355.2    
   3943000   1506.0075     -228310.61      0             -215852.13      42.171401      1648355      
   3943500   1509.4589     -228301.19      0             -215814.16      185.36122      1648354.8    
   3944000   1509.8997     -228299.46      0             -215808.79     -40.607366      1648354.6    
   3944500   1506.4441     -228290.33      0             -215828.24      61.80871       1648354.4    
   3945000   1497.0954     -228246.84      0             -215862.08      147.37491      1648354.2    
   3945500   1500.0644     -228299.56      0             -215890.24     -28.339461      1648354.1    
   3946000   1499.5518     -228307.71      0             -215902.64     -458.66027      1648353.9    
   3946500   1496.8958     -228287.96      0             -215904.86     -275.15514      1648353.7    
   3947000   1497.2898     -228287.66      0             -215901.3      -166.48803      1648353.4    
   3947500   1497.0243     -228279.53      0             -215895.37     -32.611854      1648353.2    
   3948000   1497.2446     -228271.77      0             -215885.78     -17.72701       1648352.9    
   3948500   1496.8866     -228255.84      0             -215872.82      52.789499      1648352.7    
   3949000   1500.7817     -228268.03      0             -215852.78     -1.7758543      1648352.4    
   3949500   1504.0126     -228261.05      0             -215819.07      374.24242      1648352.1    
   3950000   1511.5171     -228288.93      0             -215784.87      18.930231      1648351.8    
   3950500   1504.6343     -228224.03      0             -215776.91      109.73796      1648351.6    
   3951000   1509.565      -228294.84      0             -215806.93      195.23024      1648351.4    
   3951500   1505.2718     -228319.42      0             -215867.02     -64.3897        1648351.2    
   3952000   1502.0011     -228332.51      0             -215907.18     -6.6486183      1648351      
   3952500   1495.3928     -228294.57      0             -215923.91      119.08943      1648350.8    
   3953000   1503.4748     -228366.96      0             -215929.43     -192.08483      1648350.5    
   3953500   1498.6035     -228326.91      0             -215929.69      20.682618      1648350.3    
   3954000   1501.4381     -228343.92      0             -215923.24     -42.318034      1648350.1    
   3954500   1509.7589     -228398.85      0             -215909.34     -227.41251      1648349.9    
   3955000   1502.8946     -228319.9       0             -215887.18      217.50498      1648349.7    
   3955500   1503.9709     -228297.58      0             -215855.95      275.78814      1648349.5    
   3956000   1506.0023     -228289.84      0             -215831.41      456.31741      1648349.4    
   3956500   1509.2624     -228313.14      0             -215827.74     -11.520934      1648349.3    
   3957000   1504.2573     -228301.76      0             -215857.77      284.75235      1648349.2    
   3957500   1502.7331     -228348.22      0             -215916.83      191.44291      1648349.2    
   3958000   1498.2797     -228353.14      0             -215958.59      142.07905      1648349.2    
   3958500   1495.4747     -228345.23      0             -215973.88      150.21762      1648349.2    
   3959000   1494.4177     -228337.66      0             -215975.06     -28.953901      1648349.2    
   3959500   1495.5132     -228335.04      0             -215963.38      74.908326      1648349.2    
   3960000   1503.5936     -228377.1       0             -215938.59     -0.27986941     1648349.3    
   3960500   1507.1999     -228373.47      0             -215905.13      114.26756      1648349.4    
   3961000   1503.9403     -228313.51      0             -215872.13      146.34665      1648349.5    
   3961500   1508.358      -228322.91      0             -215844.99      315.8126       1648349.6    
   3962000   1505.4549     -228283.05      0             -215829.15      294.05475      1648349.8    
   3962500   1504.2609     -228276.07      0             -215832.04      269.24239      1648350      
   3963000   1507.3031     -228342.83      0             -215873.64     -62.298995      1648350.3    
   3963500   1500.5486     -228341.13      0             -215927.81     -93.277931      1648350.5    
   3964000   1493.8872     -228318.42      0             -215960.2      -54.02097       1648350.8    
   3964500   1500.5532     -228385.86      0             -215972.5      -92.773616      1648351      
   3965000   1496.1568     -228342.41      0             -215965.42     -252.57652      1648351.2    
   3965500   1500.1321     -228350.92      0             -215941.04     -188.13554      1648351.5    
   3966000   1502.5869     -228330.77      0             -215900.59      67.197491      1648351.7    
   3966500   1498.6229     -228260.13      0             -215862.74      209.27587      1648351.9    
   3967000   1505.2928     -228295.22      0             -215842.66     -34.898814      1648352.1    
   3967500   1504.0916     -228283.8       0             -215841.17      40.64335       1648352.4    
   3968000   1504.1008     -228295.95      0             -215853.24      33.534147      1648352.6    
   3968500   1499.6293     -228280.36      0             -215874.65      184.11738      1648352.8    
   3969000   1497.5796     -228285.71      0             -215896.96      164.04684      1648353      
   3969500   1494.1097     -228268.31      0             -215908.25     -18.046326      1648353.3    
   3970000   1492.9291     -228259.71      0             -215909.43     -192.69353      1648353.5    
   3970500   1503.4024     -228341.6       0             -215904.68     -442.36574      1648353.7    
   3971000   1499.2683     -228299.1       0             -215896.37      22.481757      1648353.9    
   3971500   1499.9324     -228292.35      0             -215884.13     -24.2977        1648354      
   3972000   1501.3968     -228291.16      0             -215870.83      119.23639      1648354.1    
   3972500   1498.0857     -228253.21      0             -215860.27     -207.22335      1648354.3    
   3973000   1505.2036     -228304.94      0             -215853.11      60.190211      1648354.4    
   3973500   1506.1681     -228314.58      0             -215854.77     -332.1633       1648354.6    
   3974000   1503.7721     -228316.57      0             -215876.58     -121.32204      1648354.7    
   3974500   1504.1171     -228357.77      0             -215914.93     -137.62646      1648354.9    
   3975000   1495.5365     -228323.18      0             -215951.33     -125.25843      1648355      
   3975500   1496.0501     -228346.36      0             -215970.25      48.662415      1648355.1    
   3976000   1489.1848     -228288.55      0             -215969.24     -92.058375      1648355.2    
   3976500   1498.5059     -228341.12      0             -215944.7      -14.52519       1648355.3    
   3977000   1498.809      -228292.28      0             -215893.35      97.735468      1648355.4    
   3977500   1506.2105     -228307.55      0             -215847.4       291.97769      1648355.5    
   3978000   1507.8367     -228309.13      0             -215835.52      92.414744      1648355.6    
   3978500   1506.0614     -228305.82      0             -215846.89      307.71132      1648355.7    
   3979000   1503.8097     -228309.23      0             -215868.93      152.10309      1648355.9    
   3979500   1505.9665     -228350.79      0             -215892.65     -179.32844      1648356.1    
   3980000   1496.2266     -228291.63      0             -215914.06      233.2201       1648356.3    
   3980500   1497.0935     -228316.59      0             -215931.86      173.01844      1648356.5    
   3981000   1497.4994     -228329.54      0             -215941.45     -77.47578       1648356.7    
   3981500   1498.8787     -228344.23      0             -215944.72      107.16791      1648356.9    
   3982000   1499.3311     -228344.44      0             -215941.19     -148.48824      1648357.1    
   3982500   1508.7594     -228400.44      0             -215919.2      -282.57195      1648357.4    
   3983000   1498.4389     -228267.07      0             -215871.21      356.23935      1648357.6    
   3983500   1502.9406     -228264.7       0             -215831.59      315.3058       1648357.9    
   3984000   1508.7736     -228299.7       0             -215818.34      182.02474      1648358.2    
   3984500   1504.8552     -228283.42      0             -215834.47      51.164318      1648358.6    
   3985000   1506.6293     -228340.4       0             -215876.78     -188.73024      1648359      
   3985500   1493.5507     -228278.56      0             -215923.13     -113.02663      1648359.4    
   3986000   1492.8993     -228294.94      0             -215944.9       8.8197272      1648359.8    
   3986500   1494.5314     -228312.21      0             -215948.66      210.54649      1648360.1    
   3987000   1497.6629     -228332.78      0             -215943.34      95.361495      1648360.5    
   3987500   1497.9945     -228321.08      0             -215928.89      78.988351      1648360.9    
   3988000   1501.7774     -228331.41      0             -215907.92      175.19187      1648361.3    
   3988500   1498.2228     -228275.71      0             -215881.64      7.9239423      1648361.6    
   3989000   1502.1845     -228270.59      0             -215843.74      153.82484      1648362      
   3989500   1509.2273     -228273.57      0             -215788.46      64.51427       1648362.4    
   3990000   1508.7983     -228227.72      0             -215746.15      197.84246      1648362.8    
   3990500   1510.7488     -228244.54      0             -215746.84     -128.2996       1648363.3    
   3991000   1505.7542     -228253.12      0             -215796.74      222.72669      1648363.8    
   3991500   1505.6618     -228313.36      0             -215857.74      113.74709      1648364.3    
   3992000   1499.4699     -228284.99      0             -215880.59     -35.177133      1648364.8    
   3992500   1499.3356     -228299.55      0             -215896.26      111.71787      1648365.3    
   3993000   1501.0808     -228328.07      0             -215910.35     -131.52154      1648365.8    
   3993500   1500.758      -228336.56      0             -215921.51     -207.56941      1648366.3    
   3994000   1500.1084     -228335.93      0             -215926.25     -53.398583      1648366.8    
   3994500   1499.4807     -228329.81      0             -215925.32      168.05768      1648367.3    
   3995000   1500.7916     -228333.32      0             -215917.99     -12.340126      1648367.8    
   3995500   1500.6425     -228314.7       0             -215900.61      57.755779      1648368.3    
   3996000   1499.776      -228277.7       0             -215870.77      85.660472      1648368.8    
   3996500   1506.8368     -228304.21      0             -215838.87      269.87167      1648369.3    
   3997000   1509.1546     -228308.22      0             -215823.7       255.61336      1648369.8    
   3997500   1503.3423     -228272.51      0             -215836.08      242.95249      1648370.4    
   3998000   1497.7857     -228276.89      0             -215886.42      129.28799      1648370.9    
   3998500   1492.3        -228290.82      0             -215945.74      54.288086      1648371.5    
   3999000   1494.4464     -228329.92      0             -215967.08     -37.868967      1648372.1    
   3999500   1497.1871     -228352.16      0             -215966.65     -76.819365      1648372.7    
   4000000   1500.3052     -228364.96      0             -215953.66      122.85075      1648373.3    
Loop time of 178702 on 4 procs for 4000000 steps with 64000 atoms

Performance: 1.934 ns/day, 12.410 hours/ns, 22.384 timesteps/s, 1.433 Matom-step/s
93.0% CPU use with 4 MPI tasks x no OpenMP threads

MPI task timing breakdown:
Section |  min time  |  avg time  |  max time  |%varavg| %total
---------------------------------------------------------------
Pair    | 1.2425e+05 | 1.4358e+05 | 1.6332e+05 |5071.7 | 80.34
Neigh   | 6577.4     | 7392.6     | 8220.8     | 947.7 |  4.14
Comm    | 2760.2     | 23399      | 43609      |13140.5 | 13.09
Output  | 1076.4     | 1076.4     | 1076.5     |   0.1 |  0.60
Modify  | 2955.4     | 3018.9     | 3086.8     | 111.0 |  1.69
Other   |            | 240.4      |            |       |  0.13

Nlocal:          16000 ave       16134 max       15928 min
Histogram: 1 1 1 0 0 0 0 0 0 1
Nghost:        18434.8 ave       18529 max       18285 min
Histogram: 1 0 0 0 0 0 1 0 1 1
Neighs:    1.73998e+06 ave  1.7546e+06 max 1.72057e+06 min
Histogram: 1 0 0 0 0 1 0 1 0 1

Total # of neighbors = 6959919
Ave neighs/atom = 108.74873
Neighbor list builds = 136575
Dangerous builds = 0
Total wall time: 49:38:22
