LAMMPS (2 Aug 2023)
Lattice spacing in x,y,z = 5.5392 5.5392 5.5392
Created orthogonal box = (0 0 0) to (110.784 110.784 110.784)
  1 by 2 by 2 MPI processor grid
Created 64000 atoms
  using lattice units in orthogonal box = (0 0 0) to (110.784 110.784 110.784)
  create_atoms CPU = 0.003 seconds
32000 atoms in group Ba
32000 atoms in group O
WARNING: 23463 of 50000 force values in table Vash_11 are inconsistent with -dE/dr.
WARNING:  Should only be flagged at inflection points (../pair_table.cpp:466)
WARNING: 43814 of 50000 distance values in table 1e-06 with relative error
WARNING:  over Vash_11 to re-computed values (../pair_table.cpp:474)
WARNING: 23576 of 50000 force values in table Vash_12 are inconsistent with -dE/dr.
WARNING:  Should only be flagged at inflection points (../pair_table.cpp:466)
WARNING: 43814 of 50000 distance values in table 1e-06 with relative error
WARNING:  over Vash_12 to re-computed values (../pair_table.cpp:474)
WARNING: 23794 of 50000 force values in table Vash_22 are inconsistent with -dE/dr.
WARNING:  Should only be flagged at inflection points (../pair_table.cpp:466)
WARNING: 43814 of 50000 distance values in table 1e-06 with relative error
WARNING:  over Vash_22 to re-computed values (../pair_table.cpp:474)
Generated 0 of 1 mixed pair_coeff terms from geometric mixing rule
Neighbor list info ...
  update: every = 8 steps, delay = 0 steps, check = yes
  max neighbors/atom: 2000, page size: 100000
  master list distance cutoff = 11
  ghost atom cutoff = 11
  binsize = 5.5, bins = 21 21 21
  1 neighbor lists, perpetual/occasional/extra = 1 0 0
  (1) pair table, perpetual
      attributes: half, newton on
      pair build: half/bin/atomonly/newton
      stencil: half/bin/3d
      bin: standard
Setting up Verlet run ...
  Unit style    : metal
  Current step  : 0
  Time step     : 0.001
Per MPI rank memory allocation (min/avg/max) = 16.41 | 16.41 | 16.41 Mbytes
   Step          Temp          E_pair         E_mol          TotEng         Press          Volume    
         0   2000          -243821.04      0             -227276         12684.851      1359662.5    
       500   1040.9405     -235562.6       0             -226951.4       46458.408      1359664.3    
      1000   1096.1918     -235533.61      0             -226465.34      47061.353      1359669.7    
      1500   1124.0735     -235206         0             -225907.08      48841.386      1359678.8    
      2000   1170.2406     -234976.31      0             -225295.47      50220.446      1359691.8    
      2500   1207.1769     -234626.86      0             -224640.47      52021.84       1359708.7    
      3000   1256.1395     -234339.17      0             -223947.73      53551.905      1359729.7    
      3500   1302.1814     -233994.91      0             -223222.59      55316.992      1359754.9    
      4000   1350.7446     -233643.6       0             -222469.54      57278.625      1359784.5    
      4500   1395.4207     -233236.38      0             -221692.74      59277.726      1359818.6    
      5000   1448.907      -232882.58      0             -220896.46      61230.914      1359857.3    
      5500   1502.3201     -232513.67      0             -220085.69      63203.987      1359900.8    
      6000   1556.0676     -232138.58      0             -219265.98      65114.903      1359949.3    
      6500   1613.4315     -231789.99      0             -218442.84      67179.971      1360002.9    
      7000   1673.1306     -231464.26      0             -217623.26      68876.983      1360061.7    
      7500   1718.6799     -231031.81      0             -216814         71054.146      1360126      
      8000   1766.6657     -230638.81      0             -216024.03      72915.068      1360195.9    
      8500   1819.0602     -230309.99      0             -215261.78      74679.383      1360271.4    
      9000   1859.2982     -229919.48      0             -214538.4       76458.985      1360352.8    
      9500   1913.4421     -229694.62      0             -213865.63      77760.765      1360440.1    
     10000   1942.4904     -229327.02      0             -213257.73      79785.128      1360533.5    
     10500   1998.6634     -229264.61      0             -212730.62      80081.819      1360633.1    
     11000   2017.499      -228995.83      0             -212306.03      81225.119      1360738.9    
     11500   2028.177      -228786.84      0             -212008.7       82343.838      1360851      
     12000   2041.8874     -228758.75      0             -211867.2       82410.164      1360969.5    
     12500   2037.454      -228759.45      0             -211904.57      82300.472      1361094.4    
     13000   2033.0232     -228922.98      0             -212104.75      81624.71       1361225.5    
     13500   2009.5921     -229017.87      0             -212393.48      81008.727      1361362.8    
     14000   1989.0168     -229135.12      0             -212680.94      79923.355      1361506.3    
     14500   1978.1798     -229265.84      0             -212901.31      79306.427      1361655.8    
     15000   1959.1303     -229221.63      0             -213014.69      79615          1361811.3    
     15500   1964.5097     -229250.29      0             -212998.84      79333.971      1361972.6    
     16000   1972.7644     -229179.81      0             -212860.08      79735.45       1362139.7    
     16500   1991.7963     -229120.42      0             -212643.25      80005.537      1362312.6    
     17000   2005.9869     -229008.16      0             -212413.59      80375.989      1362491.1    
     17500   2023.885      -228971.48      0             -212228.85      80748.107      1362675.3    
     18000   2031.4594     -228935.05      0             -212129.77      80667.468      1362865.1    
     18500   2027.1257     -228907.67      0             -212138.23      80751.72       1363060.4    
     19000   2009.4811     -228876.43      0             -212252.95      80579.902      1363261.1    
     19500   2005.4707     -229027.9       0             -212437.61      79831.063      1363467.1    
     20000   1989.8942     -229099.7       0             -212638.26      79333.459      1363678.1    
     20500   1976.589      -229152.81      0             -212801.44      78851.979      1363894      
     21000   1978.8713     -229261.45      0             -212891.2       78469.765      1364114.6    
     21500   1977.5704     -229244.99      0             -212885.5       78441.325      1364339.7    
     22000   1986.095      -229218.19      0             -212788.18      78552.038      1364569.3    
     22500   1995.5063     -229136.37      0             -212628.51      79012.018      1364803      
     23000   2007.104      -229056.29      0             -212452.48      79140.714      1365040.8    
     23500   2005.4553     -228898.6       0             -212308.44      79710.898      1365282.4    
     24000   2016.7858     -228911.97      0             -212228.07      79511.98       1365527.8    
     24500   2019.9229     -228944.23      0             -212234.37      79506.04       1365776.7    
     25000   2007.457      -228930.36      0             -212323.63      79398.697      1366028.9    
     25500   2008.9806     -229088.82      0             -212469.49      78359.058      1366284.1    
     26000   1984.2921     -229046.06      0             -212630.97      78266.052      1366542.1    
     26500   1994.8405     -229267.95      0             -212765.59      77244.013      1366802.7    
     27000   1982.5577     -229242.25      0             -212841.5       77394.824      1367065.5    
     27500   1986.7264     -229276.2       0             -212840.96      77198.588      1367330.4    
     28000   1987.912      -229207.89      0             -212762.85      77368.125      1367597      
     28500   1983.4628     -229039.42      0             -212631.19      77756.126      1367865.1    
     29000   2007.1388     -229086.24      0             -212482.15      77873.002      1368134.6    
     29500   2011.0293     -228994.84      0             -212358.56      77799.806      1368405.3    
     30000   2013.2966     -228944.26      0             -212289.22      78215.241      1368676.8    
     30500   2020.6207     -229008.06      0             -212292.44      77818.285      1368949.1    
     31000   2006.8146     -228968.63      0             -212367.22      77883.368      1369221.8    
     31500   1996.5921     -229008.56      0             -212491.71      77229.344      1369494.7    
     32000   2000.3957     -229180.55      0             -212632.23      76626.979      1369767.7    
     32500   1991.4331     -229226.02      0             -212751.85      76194.596      1370040.5    
     33000   1985.3735     -229245.27      0             -212821.23      75973.105      1370312.8    
     33500   1980.1564     -229202.17      0             -212821.29      76062.817      1370584.5    
     34000   1983.9332     -229165.77      0             -212753.64      76039.825      1370855.4    
     34500   1993.819      -229131.27      0             -212637.36      76227.518      1371125.4    
     35000   2002.0179     -229066.67      0             -212504.94      76306.132      1371394.4    
     35500   2003.4995     -228966.95      0             -212392.96      76624.016      1371662.2    
     36000   2008.923      -228948.09      0             -212329.24      76663.389      1371928.7    
     36500   2014.7248     -228996.7       0             -212329.85      76457.782      1372193.9    
     37000   2017.8988     -229086.2       0             -212393.1       76049.786      1372457.7    
     37500   2007.8529     -229112.8       0             -212502.8       75529.675      1372720      
     38000   1983.8137     -229038.77      0             -212627.64      75885.914      1372980.6    
     38500   1997.0236     -229255.03      0             -212734.61      74791.812      1373239.6    
     39000   1982.8951     -229200.6       0             -212797.06      74692.167      1373496.8    
     39500   1997.026      -229319.62      0             -212799.18      74260.704      1373752.2    
     40000   1990.2532     -229206.8       0             -212742.39      74775.197      1374005.9    
     40500   1992.5895     -229125.37      0             -212641.63      74852.808      1374257.9    
     41000   2001.8196     -229085.66      0             -212525.57      74990.364      1374508      
     41500   2010.4892     -229055.4       0             -212423.59      75182.628      1374756.5    
     42000   2013.9748     -229025.66      0             -212365.01      75312.516      1375003.4    
     42500   2014.7498     -229030.34      0             -212363.28      75054.216      1375248.7    
     43000   2009.2107     -229040.77      0             -212419.54      74960.777      1375492.4    
     43500   2000.3419     -229066.87      0             -212519         74541.924      1375734.6    
     44000   1996.0189     -229145.07      0             -212632.96      74197.038      1375975.4    
     44500   1984.4154     -229147.73      0             -212731.62      73995.271      1376214.7    
     45000   1980.5022     -229173.59      0             -212789.85      73706.389      1376452.6    
     45500   1988.4514     -229241.95      0             -212792.45      73407.386      1376689.3    
     46000   1990.2849     -229203.26      0             -212738.59      73538.355      1376924.7    
     46500   1994.7319     -229146.89      0             -212645.43      73975.293      1377159      
     47000   2003.0014     -229107.27      0             -212537.4       73908.398      1377392.3    
     47500   2011.4814     -229084.02      0             -212444         74134.88       1377624.7    
     48000   2014.092      -229049.93      0             -212388.31      73974.306      1377856.2    
     48500   2012.7137     -229035.48      0             -212385.27      73748.829      1378086.9    
     49000   2006.9382     -229038.35      0             -212435.91      73830.627      1378317      
     49500   2007.6858     -229133.84      0             -212525.22      73225.76       1378546.5    
     50000   2004.7723     -229212.92      0             -212628.4       72674.809      1378775.5    
     50500   1984.1565     -229133.21      0             -212719.24      72805.929      1379004.1    
     51000   1996.6804     -229291.32      0             -212773.74      72433.602      1379232.2    
     51500   1988.8467     -229230.94      0             -212778.17      72225.653      1379460      
     52000   1997.137      -229252.94      0             -212731.59      72262.614      1379687.4    
     52500   1999.9929     -229190.81      0             -212645.83      72472.812      1379914.7    
     53000   1996.9371     -229066.14      0             -212546.44      72896.351      1380141.9    
     53500   2001.3637     -229016.95      0             -212460.63      72740.751      1380369      
     54000   2012.2329     -229056.21      0             -212409.98      72678.599      1380596.2    
     54500   2018.5192     -229105.17      0             -212406.93      72632.621      1380823.4    
     55000   2010.1339     -229083.08      0             -212454.21      72381.474      1381050.8    
     55500   2004.3527     -229119.89      0             -212538.84      72158.065      1381278.4    
     56000   1999.2835     -229175.35      0             -212636.24      72258.121      1381506.1    
     56500   1987.7286     -229162.43      0             -212718.9       71693.24       1381734.1    
     57000   1990.2733     -229230.63      0             -212766.06      71295.885      1381962.3    
     57500   1993.7043     -229259.65      0             -212766.69      71139.264      1382190.8    
     58000   1997.2289     -229243.35      0             -212721.24      71002.959      1382419.5    
     58500   1992.4608     -229123.58      0             -212640.91      71604.065      1382648.5    
     59000   2001.9936     -229109.58      0             -212548.05      71701.153      1382877.8    
     59500   2010.507      -229100.41      0             -212468.45      71535.986      1383107.6    
     60000   2013.3032     -229077.33      0             -212422.24      71713.817      1383337.7    
     60500   2012.7008     -229072.21      0             -212422.1       71767.458      1383568.2    
     61000   2012.6524     -229118.18      0             -212468.47      71285.109      1383799.1    
     61500   2003.9799     -229127.35      0             -212549.39      70981.619      1384030.4    
     62000   1997.014      -229163.31      0             -212642.97      70700.332      1384262.1    
     62500   1996.9996     -229242.07      0             -212721.85      70227.887      1384494.1    
     63000   1993.9825     -229260.7       0             -212765.44      70219.072      1384726.5    
     63500   1989.4575     -229219.46      0             -212761.64      70222.373      1384959.1    
     64000   1989.5254     -229170.8       0             -212712.41      70069.193      1385192.1    
     64500   2000.4668     -229179.78      0             -212630.87      70124.351      1385425.3    
     65000   2007.7058     -229148.13      0             -212539.34      70408.543      1385658.8    
     65500   2008.786      -229080.57      0             -212462.84      70686.147      1385892.6    
     66000   2015.5895     -229094.37      0             -212420.37      70356.022      1386126.6    
     66500   2007.7787     -229034.04      0             -212424.65      70734.373      1386360.9    
     67000   2013.6352     -229131.75      0             -212473.92      70137.488      1386595.4    
     67500   1997.9393     -229083.03      0             -212555.04      70142.641      1386830      
     68000   1996.6598     -229161.39      0             -212643.98      69580.113      1387064.8    
     68500   1992.3146     -229200.51      0             -212719.05      69144.169      1387299.7    
     69000   1989.7769     -229220.04      0             -212759.57      69193.54       1387534.6    
     69500   1991.6198     -229229.36      0             -212753.65      68825.84       1387769.5    
     70000   1989.8535     -229163.63      0             -212702.52      69415.081      1388004.3    
     70500   1992.998      -229108.14      0             -212621.03      69583.563      1388239.1    
     71000   2010.3454     -229162.56      0             -212531.94      69255.458      1388473.8    
     71500   2013.7742     -229119.59      0             -212460.6       69228.636      1388708.4    
     72000   2006.115      -229020.79      0             -212425.17      69705.065      1388942.9    
     72500   2005.8443     -229027.28      0             -212433.9       69470.075      1389177.2    
     73000   2009.2921     -229107.56      0             -212485.65      68978.085      1389411.3    
     73500   2005.4557     -229153.41      0             -212563.23      68619.797      1389645.2    
     74000   1989.8566     -229109.26      0             -212648.13      68745.405      1389878.9    
     74500   1999.4796     -229258.16      0             -212717.43      68073.482      1390112.1    
     75000   1999.9627     -229297.47      0             -212752.74      67681.083      1390345      
     75500   1990.89       -229213.13      0             -212743.45      67966.173      1390577.5    
     76000   1994.3877     -229192.03      0             -212693.42      68064.728      1390809.6    
     76500   2000.3953     -229163.58      0             -212615.27      68163.456      1391041.1    
     77000   2002.7397     -229098.86      0             -212531.16      68284.918      1391272.3    
     77500   2008.5391     -229080.14      0             -212464.46      68366.753      1391502.9    
     78000   2016.5956     -229113.33      0             -212431         68044.625      1391733      
     78500   2005.6059     -229031.38      0             -212439.96      68222.376      1391962.6    
     79000   2006.6952     -229089.26      0             -212488.83      68168.246      1392191.6    
     79500   2005.234      -229153.08      0             -212564.74      67511.592      1392420.1    
     80000   2000.7634     -229197.92      0             -212646.56      67410.33       1392647.9    
     80500   1988.4598     -229162.68      0             -212713.1       67367.965      1392875.1    
     81000   1990.4961     -229212.02      0             -212745.6       67134.473      1393101.6    
     81500   1989.071      -229189.83      0             -212735.2       66954.148      1393327.4    
     82000   2000.8463     -229236.4       0             -212684.36      66910.642      1393552.5    
     82500   1998.1873     -229138.83      0             -212608.78      67366.667      1393776.9    
     83000   2007.0987     -229130.46      0             -212526.7       66986.462      1394000.5    
     83500   2009.5846     -229085.01      0             -212460.68      67078.555      1394223.4    
     84000   2018.2116     -229123.39      0             -212427.69      67257.389      1394445.6    
     84500   2017.1025     -229124.02      0             -212437.5       66927.082      1394667.1    
     85000   2003.4852     -229060.81      0             -212486.94      67112.919      1394887.8    
     85500   1999.3742     -229100.24      0             -212560.38      66782.374      1395107.8    
     86000   1995.8828     -229149.98      0             -212639         66641.264      1395327.1    
     86500   1991.8549     -229182.14      0             -212704.48      66565.73       1395545.6    
     87000   1982.0221     -229133.33      0             -212737.02      66437.709      1395763.2    
     87500   1978.2337     -229093.33      0             -212728.35      66457.439      1395980.1    
     88000   1990.5231     -229149.08      0             -212682.44      66281.782      1396196.2    
     88500   2002.2842     -229175.16      0             -212611.22      65851.287      1396411.5    
     89000   2001.7846     -229092.61      0             -212532.81      66357.476      1396626.1    
     89500   2007.0523     -229072.49      0             -212469.11      66368.049      1396839.8    
     90000   2014.9478     -229103.87      0             -212435.17      65985.471      1397052.9    
     90500   2013.7072     -229099.05      0             -212440.62      66109.418      1397265.2    
     91000   2008.0759     -229095.14      0             -212483.29      66009.556      1397476.8    
     91500   2004.5102     -229132.97      0             -212550.62      65802.804      1397687.7    
     92000   1995.921      -229135.2       0             -212623.9       65575.188      1397897.9    
     92500   1997.3598     -229207.8       0             -212684.6       65323.041      1398107.4    
     93000   1989.1883     -229172.54      0             -212716.94      65315.678      1398316.1    
     93500   1991.9622     -229189.32      0             -212710.77      65216.362      1398524.1    
     94000   1993.3701     -229159.08      0             -212668.88      65347.198      1398731.3    
     94500   1999.7451     -229146.49      0             -212603.55      65431.906      1398937.9    
     95000   1997.5722     -229056.5       0             -212531.55      65428.832      1399143.8    
     95500   2009.2268     -229092.43      0             -212471.06      65503.248      1399349.1    
     96000   2002.8713     -229008.82      0             -212440.03      65540.929      1399553.7    
     96500   2013.401      -229100.25      0             -212444.35      65147.343      1399757.7    
     97000   2012.0979     -229130.08      0             -212484.96      65030.467      1399961.1    
     97500   2007.2416     -229154.34      0             -212549.4       64916.626      1400163.9    
     98000   1994.772      -229122.63      0             -212620.84      64543.105      1400366.2    
     98500   2003.019      -229247.75      0             -212677.74      64042.979      1400567.8    
     99000   1994.7221     -229207.25      0             -212705.87      64126.589      1400768.8    
     99500   1989.8633     -229158.19      0             -212697         64419.277      1400969.2    
    100000   1999.6301     -229195.04      0             -212653.06      64194.577      1401169.1    
    100500   1995.2666     -229091.74      0             -212585.85      64674.354      1401368.4    
    101000   2000.9406     -229065.88      0             -212513.06      64598.095      1401567.2    
    101500   2009.8261     -229081.09      0             -212454.76      64579.546      1401765.5    
    102000   2008.9035     -229045.42      0             -212426.73      64800.933      1401963.3    
    102500   2006.5231     -229034.73      0             -212435.73      64467.628      1402160.6    
    103000   1998.3986     -229012.21      0             -212480.41      64307.558      1402357.5    
    103500   2004.7271     -229132.45      0             -212548.31      64000.643      1402554      
    104000   2005.3985     -229209.95      0             -212620.25      63517.641      1402750      
    104500   1990.7416     -229145.46      0             -212677.01      63802.461      1402945.5    
    105000   1987.9356     -229148.41      0             -212703.18      63894.352      1403140.6    
    105500   1991.4894     -229168.04      0             -212693.4       63596.856      1403335.2    
    106000   1996.2461     -229162.55      0             -212648.57      63289.473      1403529.4    
    106500   1993.8752     -229075.56      0             -212581.18      63604.271      1403723.1    
    107000   2001.1689     -229064.8       0             -212510.09      63698.585      1403916.5    
    107500   2004.791      -229038.02      0             -212453.35      63620.903      1404109.5    
    108000   2004.0391     -229003.03      0             -212424.57      63873.046      1404302.2    
    108500   2014.6438     -229098.44      0             -212432.26      63660.838      1404494.5    
    109000   2004.106      -229053.38      0             -212474.38      63522.906      1404686.4    
    109500   2002.3225     -229102.82      0             -212538.56      63182.335      1404878.1    
    110000   1991.801      -229085.79      0             -212608.57      62989.205      1405069.4    
    110500   1993.8213     -229157.89      0             -212663.96      62706.262      1405260.4    
    111000   1996.4752     -229206.69      0             -212690.81      62840.568      1405451      
    111500   1995.4246     -229186.65      0             -212679.46      62425.6        1405641.3    
    112000   2000.871      -229186.59      0             -212634.35      62338.176      1405831.2    
    112500   2001.0756     -229122.3       0             -212568.36      62585.817      1406020.9    
    113000   2006.3265     -229096.06      0             -212498.68      62902.861      1406210.3    
    113500   2004.6787     -229028         0             -212444.25      63049.591      1406399.4    
    114000   2007.1385     -229023.35      0             -212419.26      63246.852      1406588.2    
    114500   2006.2232     -229026.18      0             -212429.65      62663.058      1406776.8    
    115000   2007.2453     -229077.11      0             -212472.14      62419.353      1406965.1    
    115500   1995.8173     -229046.25      0             -212535.81      62637.002      1407153.3    
    116000   1989.7603     -229062.76      0             -212602.43      62425.304      1407341.1    
    116500   1989.0594     -229107.64      0             -212653.11      62191.059      1407528.7    
    117000   1997.9364     -229204.45      0             -212676.48      61637.449      1407716      
    117500   1993.7697     -229157.2       0             -212663.7       61651.518      1407903.1    
    118000   1987.0455     -229056.67      0             -212618.79      62332.078      1408089.9    
    118500   1995.714      -229063.62      0             -212554.04      62039.638      1408276.4    
    119000   2003.2996     -229060.17      0             -212487.84      62159.38       1408462.7    
    119500   2007.2277     -229042.36      0             -212437.53      62157.578      1408648.9    
    120000   2003.3619     -228988.66      0             -212415.81      62407.652      1408834.8    
    120500   2006.5617     -229026.69      0             -212427.36      61951.885      1409020.5    
    121000   2000.202      -229016.3       0             -212469.59      62131.964      1409206      
    121500   2001.003      -229084.02      0             -212530.68      61768.446      1409391.4    
    122000   2003.0934     -229164.95      0             -212594.32      61252.13       1409576.5    
    122500   1990.5929     -229110.33      0             -212643.11      61562.269      1409761.4    
    123000   1991.8316     -229139.25      0             -212661.78      61272.406      1409946.1    
    123500   1995.4694     -229153.4       0             -212645.84      60882.333      1410130.6    
    124000   2000.5094     -229149.22      0             -212599.96      60975.191      1410314.9    
    124500   1999.2193     -229075.93      0             -212537.35      61363.474      1410498.9    
    125000   2009.3354     -229096.92      0             -212474.65      61356.215      1410682.8    
    125500   2000.0537     -228974.21      0             -212428.73      61286.502      1410866.5    
    126000   2000.5304     -228959.62      0             -212410.2       61777.021      1411050.1    
    126500   2002.1729     -228989.02      0             -212426         61526.34       1411233.5    
    127000   2002.1443     -229034.87      0             -212472.09      61032.313      1411416.7    
    127500   2009.1119     -229153.6       0             -212533.19      60766.954      1411599.7    
    128000   2003.5584     -229167.02      0             -212592.55      60465.428      1411782.6    
    128500   1994.591      -229135.45      0             -212635.15      60326.928      1411965.3    
    129000   1988.3579     -229099.14      0             -212650.41      60436.779      1412147.8    
    129500   1987.6494     -229075.73      0             -212632.86      60675.865      1412330.1    
    130000   1993.2287     -229075.23      0             -212586.2       60356.928      1412512.2    
    130500   2003.1217     -229093.77      0             -212522.9       60606.142      1412694.1    
    131000   2011.0393     -229096.14      0             -212459.78      60407.427      1412875.8    
    131500   2005.5269     -229005.6       0             -212414.84      60855.425      1413057.4    
    132000   2007.343      -229005.28      0             -212399.49      60558.611      1413238.9    
    132500   1999.025      -228954.98      0             -212418.01      60764.798      1413420.2    
    133000   2004.8669     -229050.57      0             -212465.27      60413.814      1413601.3    
    133500   2002.9945     -229096.82      0             -212527.01      60027.612      1413782.3    
    134000   2001.5138     -229144.23      0             -212586.67      59641.062      1413963.2    
    134500   1997.9808     -229154.64      0             -212626.31      59617.686      1414143.8    
    135000   1990.7441     -229105.02      0             -212636.55      59518.392      1414324.3    
    135500   1986.8862     -229050.72      0             -212614.17      59748.852      1414504.6    
    136000   2006.565      -229163.21      0             -212563.86      59457.349      1414684.7    
    136500   2004.5857     -229084.09      0             -212501.12      60065.008      1414864.7    
    137000   2007.1639     -229047.37      0             -212443.06      59711.629      1415044.4    
    137500   2010.4112     -229036.87      0             -212405.71      59914.911      1415224.1    
    138000   2009.5382     -229022.2       0             -212398.25      59638.671      1415403.6    
    138500   2001.4758     -228979.49      0             -212422.25      59983.956      1415582.9    
    139000   2009.6634     -229093.56      0             -212468.58      59595.848      1415762.1    
    139500   1996.0241     -229036.84      0             -212524.69      59310.511      1415941.2    
    140000   1988.5243     -229025.34      0             -212575.23      59526.929      1416120.1    
    140500   1997.5443     -229131.93      0             -212607.2       59055.216      1416298.9    
    141000   1996.5673     -229129.17      0             -212612.53      58726.095      1416477.4    
    141500   1996.6813     -229106.91      0             -212589.32      59151.829      1416655.8    
    142000   2000.7134     -229094.66      0             -212543.72      59057.189      1416834      
    142500   1998.3453     -229018.37      0             -212487.02      59219.514      1417012.1    
    143000   2002.3886     -228999.23      0             -212434.43      58988.824      1417190      
    143500   2012.1775     -229045.89      0             -212400.11      59160.542      1417367.7    
    144000   2012.3282     -229041.13      0             -212394.1       58976.274      1417545.4    
    144500   1999.3744     -228958.59      0             -212418.72      59035.193      1417722.9    
    145000   1993.5548     -228955.75      0             -212464.03      58970.208      1417900.2    
    145500   1996.672      -229035.97      0             -212518.46      58827.827      1418077.5    
    146000   2005.3047     -229155.43      0             -212566.51      58187.885      1418254.5    
    146500   1996.2967     -229109.93      0             -212595.53      58201.275      1418431.4    
    147000   1998.7313     -229130.61      0             -212596.07      58306.995      1418608.1    
    147500   1998.6454     -229102.3       0             -212568.46      58319.196      1418784.7    
    148000   2000.9603     -229071.48      0             -212518.5       58382.635      1418961.1    
    148500   2002.1438     -229023.52      0             -212460.74      58181.127      1419137.3    
    149000   2004.1682     -228991.13      0             -212411.61      58375.373      1419313.4    
    149500   2000.3103     -228930.09      0             -212382.48      58979.371      1419489.4    
    150000   2003.3581     -228953.09      0             -212380.27      58681.332      1419665.2    
    150500   2001.6109     -228964         0             -212405.63      58283.058      1419840.9    
    151000   2004.5043     -229034.88      0             -212452.58      58263.317      1420016.5    
    151500   2007.6494     -229115.55      0             -212507.23      57810.17       1420191.9    
    152000   2001.6853     -229115.4       0             -212556.42      57661.159      1420367.2    
    152500   1987.8678     -229030.2       0             -212585.52      57700.409      1420542.3    
    153000   1988.1887     -229031.49      0             -212584.16      57786.385      1420717.3    
    153500   1990.6257     -229020.22      0             -212552.73      57945.872      1420892.1    
    154000   1992.9432     -228987.18      0             -212500.51      57850.654      1421066.7    
    154500   1997.3793     -228965.06      0             -212441.7       58069.81       1421241.2    
    155000   2004.3861     -228973.56      0             -212392.24      57761.07       1421415.5    
    155500   2009.3528     -228988.68      0             -212366.27      57742.939      1421589.8    
    156000   2011.7101     -229011.4       0             -212369.49      57602.687      1421763.9    
    156500   2001.0703     -228955.16      0             -212401.26      57802.58       1421937.9    
    157000   2000.9853     -229005.81      0             -212452.62      57565.752      1422111.7    
    157500   2003.2775     -229080.75      0             -212508.6       57189.915      1422285.5    
    158000   1999.7105     -229095.53      0             -212552.89      56897.748      1422459      
    158500   1992.138      -229052.86      0             -212572.86      56786.663      1422632.5    
    159000   1990.7003     -229031.41      0             -212563.31      57066.888      1422805.7    
    159500   1992.7708     -229011.16      0             -212525.92      57372.133      1422978.8    
    160000   1998.2089     -229000.49      0             -212470.27      56979.369      1423151.8    
    160500   2007.0543     -229017.75      0             -212414.35      56939.667      1423324.6    
    161000   2004.0104     -228949.88      0             -212371.67      57358.238      1423497.3    
    161500   2002.1532     -228915.91      0             -212353.06      57225.403      1423669.9    
    162000   2011.9349     -229006.39      0             -212362.62      57065.301      1423842.3    
    162500   2001.8952     -228959.76      0             -212399.05      56929.831      1424014.7    
    163000   2002.3695     -229016.28      0             -212451.63      56565.112      1424186.9    
    163500   1995.3576     -229011.05      0             -212504.42      56811.637      1424359      
    164000   1989.2771     -228999.63      0             -212543.29      56548.864      1424530.9    
    164500   1990.4214     -229023.36      0             -212557.56      56390.92       1424702.7    
    165000   1988.0495     -228988.75      0             -212542.57      56229.19       1424874.3    
    165500   1995.5532     -229011.56      0             -212503.31      56348.505      1425045.8    
    166000   1998.319      -228981.16      0             -212450.03      56291.506      1425217.1    
    166500   1999.0207     -228933.51      0             -212396.57      56674.923      1425388.4    
    167000   2007.9086     -228969.53      0             -212359.07      56596.409      1425559.5    
    167500   2006.1037     -228940         0             -212344.47      56372.914      1425730.5    
    168000   2004.0763     -228936.92      0             -212358.16      56399.56       1425901.4    
    168500   2000.4234     -228942.84      0             -212394.3       56266.763      1426072.1    
    169000   1993.6681     -228936.06      0             -212443.4       56144.043      1426242.8    
    169500   1996.6526     -229008.76      0             -212491.42      55647.549      1426413.3    
    170000   1997.7899     -229051.91      0             -212525.15      55504.958      1426583.7    
    170500   1993.8069     -229029.35      0             -212535.54      55653.322      1426753.9    
    171000   1986.8028     -228954.32      0             -212518.46      55872.859      1426924      
    171500   1999.3711     -229018.3       0             -212478.46      55552.968      1427094      
    172000   2003.0654     -228997.59      0             -212427.19      55793.336      1427263.8    
    172500   2012.0683     -229025.14      0             -212380.27      55411.754      1427433.6    
    173000   2009.9271     -228975.68      0             -212348.52      55672.887      1427603.2    
    173500   2009.411      -228962.68      0             -212339.79      55462.008      1427772.6    
    174000   2004.9363     -228940.77      0             -212354.89      55544.413      1427942      
    174500   2002.2767     -228954.39      0             -212390.51      55499.045      1428111.3    
    175000   1998.6562     -228970.42      0             -212436.49      55386.341      1428280.5    
    175500   1995.4393     -228987.82      0             -212480.51      55459.551      1428449.5    
    176000   1994.033      -229004.86      0             -212509.18      55251.239      1428618.4    
    176500   1994.0875     -229011.26      0             -212515.13      55010.846      1428787.2    
    177000   1995.7293     -229006.14      0             -212496.43      55317.797      1428955.8    
    177500   1995.25       -228963.86      0             -212458.11      55177.946      1429124.3    
    178000   2004.2871     -228990.93      0             -212410.42      55061.377      1429292.7    
    178500   2001.9245     -228925.34      0             -212364.38      55416.593      1429461      
    179000   2007.029      -228936.42      0             -212333.24      55280.583      1429629.2    
    179500   2000.1335     -228870.96      0             -212324.81      55390.564      1429797.3    
    180000   2002.2708     -228904.64      0             -212340.82      55197.68       1429965.2    
    180500   1994.0264     -228872.18      0             -212376.56      55205.436      1430133.1    
    181000   1998.2319     -228953.26      0             -212422.85      54997.94       1430300.9    
    181500   1996.6454     -228982.09      0             -212464.8       54813.129      1430468.6    
    182000   1991.9256     -228972.43      0             -212494.19      54406.299      1430636.1    
    182500   1995.9441     -229010.67      0             -212499.18      54235.013      1430803.5    
    183000   1992.1822     -228959.64      0             -212479.27      54732.92       1430970.8    
    183500   1997.9848     -228968.77      0             -212440.4       54200.938      1431138      
    184000   1998.9088     -228929.19      0             -212393.17      54419.241      1431305      
    184500   2001.4566     -228906.68      0             -212349.59      54739.209      1431471.9    
    185000   2001.3824     -228877.13      0             -212320.65      54806.164      1431638.7    
    185500   2000.5496     -228863.46      0             -212313.87      54676.946      1431805.5    
    186000   2005.5593     -228921.49      0             -212330.46      54377.611      1431972.1    
    186500   2002.1902     -228929.96      0             -212366.8       54135.413      1432138.6    
    187000   1998.7241     -228944.64      0             -212410.15      54086.907      1432305.1    
    187500   1996.7838     -228968.05      0             -212449.61      54084.864      1432471.4    
    188000   2001.6526     -229033.89      0             -212475.18      53762.162      1432637.6    
    188500   1992.9147     -228965.08      0             -212478.65      53869.941      1432803.6    
    189000   2001.9825     -229019.48      0             -212458.04      53876.689      1432969.5    
    189500   2001.5492     -228976.03      0             -212418.17      53763.132      1433135.3    
    190000   2001.3129     -228926.67      0             -212370.77      54052.588      1433301      
    190500   2002.0698     -228890.96      0             -212328.8       54201.056      1433466.6    
    191000   2005.6425     -228896.51      0             -212304.8       54050.125      1433632.1    
    191500   2002.6418     -228870.75      0             -212303.86      53855.581      1433797.5    
    192000   2008.1997     -228937.75      0             -212324.87      53700.263      1433962.9    
    192500   1998.6515     -228896.91      0             -212363.03      53605.118      1434128.1    
    193000   1999.6815     -228948.57      0             -212406.17      53501.163      1434293.2    
    193500   1998.1479     -228972.24      0             -212442.52      53239.85       1434458.2    
    194000   1992.1059     -228941.38      0             -212461.64      53162.143      1434623.1    
    194500   1999.8985     -229002.98      0             -212458.78      53087.35       1434787.8    
    195000   1997.254      -228957.07      0             -212434.74      53303.176      1434952.4    
    195500   1996.8385     -228913.62      0             -212394.73      53508.657      1435116.9    
    196000   2003.4225     -228923.46      0             -212350.11      53052.182      1435281.3    
    196500   2005.831      -228905.73      0             -212312.45      53613.249      1435445.6    
    197000   2006.429      -228888.87      0             -212290.65      53257.389      1435609.8    
    197500   2006.564      -228890.97      0             -212291.62      53195.745      1435773.9    
    198000   2002.1499     -228878.38      0             -212315.56      53229.943      1435938      
    198500   2002.4157     -228917.89      0             -212352.87      53012.561      1436101.9    
    199000   1998.5271     -228926.17      0             -212393.31      52785.487      1436265.7    
    199500   1995.9574     -228937.19      0             -212425.59      52772.383      1436429.5    
    200000   1999.1918     -228979.14      0             -212440.78      52560.412      1436593.1    
    200500   1999.325      -228973.29      0             -212433.84      52775.717      1436756.5    
    201000   1996.6858     -228925.03      0             -212407.4       52779.204      1436919.9    
    201500   1997.9158     -228895.39      0             -212367.59      52858.637      1437083.1    
    202000   2004.9463     -228910.97      0             -212325.01      52950.461      1437246.3    
    202500   2008.5557     -228906.31      0             -212290.49      52744.834      1437409.4    
    203000   2001.074      -228827.48      0             -212273.56      52714.254      1437572.4    
    203500   2008.5542     -228893.03      0             -212277.22      52639.667      1437735.3    
    204000   2004.635      -228886.27      0             -212302.88      52740.456      1437898.1    
    204500   1992.464      -228823.99      0             -212341.29      52457.835      1438060.8    
    205000   2001.752      -228940.88      0             -212381.35      52193.72       1438223.5    
    205500   1995.8237     -228922.88      0             -212412.39      52317.356      1438386      
    206000   1993.6439     -228917.58      0             -212425.12      52310.206      1438548.4    
    206500   1994.8102     -228916.57      0             -212414.47      52018.335      1438710.7    
    207000   1997.7429     -228910.77      0             -212384.4       52282.158      1438872.9    
    207500   1999.0039     -228879.21      0             -212342.41      52308.318      1439035      
    208000   2005.4497     -228889.94      0             -212299.82      52021.206      1439197      
    208500   2004.3797     -228848.91      0             -212267.64      52081.458      1439358.9    
    209000   1997.8003     -228780.85      0             -212254         52773.131      1439520.7    
    209500   1999.506      -228801.93      0             -212260.98      52274.538      1439682.5    
    210000   2002.3995     -228851.86      0             -212286.97      52124.815      1439844.1    
    210500   2001.173      -228879.67      0             -212324.93      51957.158      1440005.7    
    211000   1991.0266     -228834.71      0             -212363.9       51970.903      1440167.1    
    211500   2000.3686     -228939.45      0             -212391.36      51687.495      1440328.5    
    212000   1996.5851     -228919.1       0             -212402.31      51749.211      1440489.7    
    212500   1993.6602     -228884.23      0             -212391.64      51519.657      1440650.9    
    213000   1999.8633     -228907.35      0             -212363.44      51610.047      1440811.9    
    213500   1999.6962     -228867.69      0             -212325.16      51605.96       1440972.8    
    214000   2004.3504     -228868.71      0             -212287.69      51983.088      1441133.7    
    214500   2002.8102     -228827.47      0             -212259.18      52083.788      1441294.4    
    215000   1996.9048     -228766.43      0             -212247         51788.081      1441455.1    
    215500   2003.7381     -228830.31      0             -212254.35      51528.309      1441615.6    
    216000   1998.3021     -228810.07      0             -212279.08      51618.783      1441776.1    
    216500   1997.6359     -228838.84      0             -212313.36      51327.132      1441936.5    
    217000   2006.0026     -228942.15      0             -212347.46      50939.62       1442096.8    
    217500   1999.3695     -228911.1       0             -212371.27      51320.409      1442257      
    218000   1990.606      -228845.85      0             -212378.52      51069.114      1442417.1    
    218500   1994.8705     -228869.64      0             -212367.03      50933.318      1442577.1    
    219000   2005.2009     -228926.28      0             -212338.22      50459.737      1442737      
    219500   2009.8228     -228928.44      0             -212302.14      50852.336      1442896.8    
    220000   2000.719      -228817.5       0             -212266.52      51413.439      1443056.5    
    220500   2005.1545     -228828.5       0             -212240.82      50919.507      1443216.1    
    221000   2002.3659     -228796.42      0             -212231.81      51061.936      1443375.6    
    221500   2008.9765     -228860.71      0             -212241.41      50984.819      1443535.1    
    222000   2004.6243     -228850.74      0             -212267.45      50793.088      1443694.5    
    222500   2001.4329     -228859.42      0             -212302.52      50759.75       1443853.8    
    223000   2000.2599     -228884.89      0             -212337.7       50740.675      1444013      
    223500   1998.4043     -228894.11      0             -212362.27      50215.309      1444172.2    
    224000   2000.2047     -228916.14      0             -212369.4       50312.137      1444331.2    
    224500   1991.4313     -228829.15      0             -212354.99      50595.982      1444490.1    
    225000   1993.6938     -228815.31      0             -212322.44      50488.059      1444648.9    
    225500   1999.7031     -228822.55      0             -212279.97      50844.58       1444807.6    
    226000   1999.5801     -228782.62      0             -212241.05      50599.481      1444966.2    
    226500   1999.2376     -228753.95      0             -212215.22      50770.931      1445124.8    
    227000   1997.8218     -228735.93      0             -212208.91      50779.038      1445283.2    
    227500   1998.5546     -228754.8       0             -212221.72      50717.481      1445441.6    
    228000   1995.1766     -228755.41      0             -212250.28      50552.781      1445599.9    
    228500   2002.236      -228850.64      0             -212287.1       50318.673      1445758.2    
    229000   1995.1036     -228825.48      0             -212320.94      50121.371      1445916.3    
    229500   1995.0986     -228846.43      0             -212341.94      49991.841      1446074.3    
    230000   1991.0114     -228815.25      0             -212344.57      50065.575      1446232.3    
    230500   1994.4723     -228826.83      0             -212327.52      49933.456      1446390.1    
    231000   1996.141      -228806.73      0             -212293.61      49906.561      1446547.8    
    231500   1993.5308     -228745.33      0             -212253.81      50309.468      1446705.4    
    232000   1999.7579     -228760.79      0             -212217.75      50036.411      1446863      
    232500   1999.9884     -228739.59      0             -212194.64      50177.211      1447020.5    
    233000   2001.0771     -228742.3       0             -212188.35      49903.761      1447177.9    
    233500   2008.8832     -228820.09      0             -212201.56      49744.836      1447335.2    
    234000   2001.5712     -228790.2       0             -212232.16      49632.92       1447492.4    
    234500   1997.4794     -228795.35      0             -212271.16      49547.776      1447649.6    
    235000   1996.9355     -228826.84      0             -212307.15      49742.261      1447806.6    
    235500   1991.2272     -228801.05      0             -212328.59      49652.047      1447963.6    
    236000   1993.948      -228825.63      0             -212330.66      49435.922      1448120.5    
    236500   1995.4119     -228818.96      0             -212311.88      49554.735      1448277.2    
    237000   1999.2064     -228813.29      0             -212274.82      49278.415      1448433.9    
    237500   2001.3073     -228788.67      0             -212232.82      49681.743      1448590.5    
    238000   2002.0082     -228757.29      0             -212195.63      49594.773      1448747      
    238500   2000.2988     -228720.98      0             -212173.47      49439.352      1448903.4    
    239000   2006.6471     -228772.32      0             -212172.29      49531.197      1449059.8    
    239500   2008.8631     -228810.02      0             -212191.66      49313.92       1449216      
    240000   1995.6317     -228734.78      0             -212225.88      49572.691      1449372.3    
    240500   2001.0324     -228817.59      0             -212264.01      49067.988      1449528.4    
    241000   1995.1812     -228801.64      0             -212296.46      49019.515      1449684.4    
    241500   1994.4692     -228813.39      0             -212314.11      49024.752      1449840.4    
    242000   1990.0467     -228776.03      0             -212313.33      48932.375      1449996.2    
    242500   1999.867      -228833.82      0             -212289.88      48851.527      1450152      
    243000   2001.7968     -228810.24      0             -212250.34      48786.953      1450307.6    
    243500   2003.5288     -228780.48      0             -212206.25      48974.842      1450463.2    
    244000   2001.5727     -228728.71      0             -212170.66      49124.287      1450618.6    
    244500   2008.3013     -228764.82      0             -212151.11      49312.934      1450774      
    245000   2008.3546     -228765.74      0             -212151.58      49025.905      1450929.4    
    245500   2007.1135     -228776.31      0             -212172.43      48590.051      1451084.7    
    246000   1995.8062     -228719.27      0             -212208.92      48873.243      1451239.9    
    246500   1988.3132     -228696.99      0             -212248.63      48907.602      1451395      
    247000   1993.6184     -228774.65      0             -212282.4       48504.982      1451550      
    247500   1997.0335     -228821.34      0             -212300.84      48671.024      1451704.9    
    248000   1995.9551     -228808.32      0             -212296.74      48170.842      1451859.7    
    248500   1991.2498     -228741.13      0             -212268.47      48767.104      1452014.5    
    249000   2000.1694     -228771.83      0             -212225.39      48259.152      1452169.1    
    249500   2010.6062     -228813.31      0             -212180.53      48326.996      1452323.7    
    250000   2014.041      -228809.53      0             -212148.34      48278.588      1452478.1    
    250500   2003.4552     -228708.71      0             -212135.09      48589.949      1452632.6    
    251000   2000.4032     -228690.35      0             -212141.97      48567.998      1452786.9    
    251500   1999.6181     -228709.93      0             -212168.05      48374.784      1452941.2    
    252000   1995.7924     -228719.05      0             -212208.81      48375.587      1453095.4    
    252500   1991.8315     -228729.42      0             -212251.95      48064.611      1453249.5    
    253000   1994.2755     -228780.56      0             -212282.87      48320.73       1453403.6    
    253500   1991.9823     -228771.62      0             -212292.9       48105.765      1453557.5    
    254000   2004.0201     -228850.5       0             -212272.21      47708.53       1453711.4    
    254500   2000.4742     -228757.56      0             -212208.6       47923.531      1453865.1    
    255000   2004.9212     -228729.39      0             -212143.64      47925.249      1454018.8    
    255500   2002.6196     -228686.22      0             -212119.51      48222.331      1454172.4    
    256000   2001.1164     -228678.27      0             -212124         48118.992      1454325.9    
    256500   2000.6232     -228694.21      0             -212144.02      48068.626      1454479.4    
    257000   1999.8474     -228716.89      0             -212173.12      48006.541      1454632.7    
    257500   2000.1988     -228753.73      0             -212207.04      47858.971      1454786      
    258000   1996.1873     -228749.78      0             -212236.28      47699.98       1454939.3    
    258500   1991.6329     -228737.33      0             -212261.51      47466.164      1455092.4    
    259000   1992.7579     -228771.11      0             -212285.98      47184.617      1455245.5    
    259500   1997.2142     -228823.07      0             -212301.08      47296.624      1455398.4    
    260000   2002.9283     -228854.05      0             -212284.79      46616.016      1455551.3    
    260500   1993.6605     -228725.57      0             -212232.97      47572.028      1455704      
    261000   1998.018      -228702.45      0             -212173.8       47704.916      1455856.6    
    261500   2001.7523     -228694.31      0             -212134.77      47248.107      1456009.2    
    262000   2004.1025     -228695.01      0             -212116.04      47704.188      1456161.7    
    262500   1998.9714     -228650.58      0             -212114.05      47525.744      1456314.1    
    263000   1997.7396     -228654.94      0             -212128.6       47518.857      1456466.5    
    263500   1992.072      -228640.48      0             -212161.02      47520.366      1456618.8    
    264000   2002.2997     -228775.32      0             -212211.25      47075.281      1456771      
    264500   1990.0644     -228735.45      0             -212272.6       47180.27       1456923.2    
    265000   1994.4901     -228812.93      0             -212313.47      46764.226      1457075.2    
    265500   1983.3946     -228723.31      0             -212315.64      47025.821      1457227.1    
    266000   1993.0595     -228744.56      0             -212256.93      46806.784      1457379      
    266500   1992.6329     -228649.73      0             -212165.63      46989.632      1457530.7    
    267000   2001.0104     -228685.39      0             -212131.99      46973.26       1457682.4    
    267500   2001.9729     -228685.33      0             -212123.97      47131.041      1457834      
    268000   2002.185      -228687.94      0             -212124.82      46775.448      1457985.5    
    268500   2000.4155     -228682.65      0             -212134.18      47303.63       1458136.9    
    269000   1993.0086     -228637.65      0             -212150.44      46879.593      1458288.3    
    269500   2005.4093     -228759.95      0             -212170.16      46351.427      1458439.6    
    270000   1997.6008     -228714.8       0             -212189.61      46350.109      1458590.8    
    270500   1994.4        -228702.57      0             -212203.85      46515.897      1458741.9    
    271000   1997.6781     -228727.27      0             -212201.44      46407.797      1458892.9    
    271500   1997.3013     -228693.42      0             -212170.71      46678.68       1459043.9    
    272000   2005.5656     -228707.97      0             -212116.89      46565.874      1459194.7    
    272500   2001.7639     -228629.43      0             -212069.79      46800.498      1459345.5    
    273000   2010.3938     -228680.35      0             -212049.33      46562.34       1459496.3    
    273500   2007.2072     -228657.34      0             -212052.68      46687.55       1459646.9    
    274000   2003.8386     -228657.95      0             -212081.15      46701.094      1459797.6    
    274500   2003.5556     -228712.54      0             -212138.09      46058.799      1459948.1    
    275000   1991.9237     -228690.81      0             -212212.58      46577.352      1460098.6    
    275500   1991.9674     -228739.24      0             -212260.65      45855.441      1460249      
    276000   1987.2013     -228702.25      0             -212263.08      46092.685      1460399.3    
    276500   1998.2916     -228773.57      0             -212242.67      45677.324      1460549.5    
    277000   1994.6253     -228717.29      0             -212216.72      45991.008      1460699.6    
    277500   1990.5828     -228652.09      0             -212184.95      45994.296      1460849.6    
    278000   2000.7686     -228698.25      0             -212146.85      46007.949      1460999.6    
    278500   1996.6231     -228627.65      0             -212110.55      46467.38       1461149.4    
    279000   2009.8774     -228711.11      0             -212084.36      45778.045      1461299.2    
    279500   2005.5736     -228660.79      0             -212069.64      45920.481      1461448.9    
    280000   2006.48       -228664.64      0             -212065.99      46149.2        1461598.6    
    280500   2003.3194     -228647.48      0             -212074.98      45858.96       1461748.2    
    281000   1998.1279     -228636.63      0             -212107.07      46011.109      1461897.8    
    281500   1995.9798     -228686.81      0             -212175.03      45593.67       1462047.2    
    282000   1982.0974     -228634.41      0             -212237.47      45593.94       1462196.6    
    282500   1990.7144     -228725.43      0             -212257.2       45517.939      1462345.9    
    283000   1988.1681     -228681.29      0             -212234.13      45529.893      1462495      
    283500   1997.8363     -228700.14      0             -212173         45596.324      1462644.1    
    284000   1991.5668     -228594.69      0             -212119.42      45649.2        1462793.2    
    284500   1997.6188     -228621.65      0             -212096.31      45819.886      1462942.1    
    285000   1997.1666     -228607.23      0             -212085.63      45719.406      1463091      
    285500   2005.7314     -228672.29      0             -212079.83      45249.317      1463239.8    
    286000   2005.589      -228665.97      0             -212074.7       45394.773      1463388.5    
    286500   2004.0598     -228651.4       0             -212072.77      45360.725      1463537.2    
    287000   2000.7802     -228622.07      0             -212070.57      45536.005      1463685.8    
    287500   2004.1058     -228644.35      0             -212065.35      45360.087      1463834.4    
    288000   2000.6726     -228608.55      0             -212057.95      45193.323      1463982.8    
    288500   2002.5979     -228615.48      0             -212048.94      45463.865      1464131.2    
    289000   1994.2913     -228540.18      0             -212042.36      45487.103      1464279.6    
    289500   2008.1383     -228654.51      0             -212042.15      45118.792      1464427.9    
    290000   2001.866      -228611.33      0             -212050.86      45092.596      1464576.1    
    290500   1991.5826     -228545.3       0             -212069.89      45310.357      1464724.2    
    291000   2000.8541     -228648.97      0             -212096.87      45120.236      1464872.3    
    291500   1991.7833     -228605.87      0             -212128.81      45033.162      1465020.3    
    292000   1992.9504     -228641.96      0             -212155.24      44788.444      1465168.2    
    292500   1996.1409     -228676.85      0             -212163.74      44705.555      1465316.1    
    293000   1997.6445     -228663.87      0             -212138.32      44699.039      1465463.8    
    293500   1987.5865     -228518.1       0             -212075.75      45191.794      1465611.5    
    294000   1995.0831     -228521.33      0             -212016.96      45232.972      1465759.1    
    294500   2005.2811     -228581.08      0             -211992.35      44918.613      1465906.7    
    295000   2008.3233     -228607.26      0             -211993.36      44717.793      1466054.2    
    295500   2010.098      -228640.43      0             -212011.85      44660.162      1466201.6    
    296000   2003.2708     -228615.94      0             -212043.84      44593.44       1466349      
    296500   2004.4588     -228669.62      0             -212087.69      44250.134      1466496.3    
    297000   1992.9982     -228625.92      0             -212138.81      44519.261      1466643.5    
    297500   1994.0701     -228690.51      0             -212194.52      44058.7        1466790.7    
    298000   1985.8468     -228678.04      0             -212250.08      43984.42       1466937.7    
    298500   1980.9363     -228671.49      0             -212284.16      44101.087      1467084.7    
    299000   1979.4525     -228630.85      0             -212255.79      44386.93       1467231.5    
    299500   1983.1546     -228565.44      0             -212159.75      44633.882      1467378.2    
    300000   1995.5075     -228602.61      0             -212094.74      44492.662      1467524.8    
    300500   2000.1051     -228599.94      0             -212054.03      44293.792      1467671.4    
    301000   2003.2242     -228591.44      0             -212019.73      44210.705      1467817.9    
    301500   2000.4185     -228538.87      0             -211990.37      44333.554      1467964.3    
    302000   1999.5668     -228514.38      0             -211972.93      44613.311      1468110.7    
    302500   2001.4101     -228526.81      0             -211970.11      44439.777      1468257      
    303000   1997.8182     -228512.6       0             -211985.61      44550.752      1468403.3    
    303500   2008.1629     -228635.06      0             -212022.5       43889.568      1468549.6    
    304000   1990.3403     -228543.12      0             -212077.99      44084.979      1468695.7    
    304500   1982.7925     -228530.51      0             -212127.82      44171.067      1468841.8    
    305000   1991.5008     -228627.23      0             -212152.5       43948.272      1468987.8    
    305500   1993.0225     -228628.63      0             -212141.31      43939.409      1469133.8    
    306000   1995.7803     -228580.61      0             -212070.48      44171.187      1469279.6    
    306500   2007.9739     -228596.41      0             -211985.41      43899.666      1469425.4    
    307000   2000.764      -228511.91      0             -211960.55      44072.354      1469571.1    
    307500   2007.0272     -228565.19      0             -211962.01      44152.205      1469716.8    
    308000   2004.6898     -228561.65      0             -211977.82      43897.641      1469862.4    
    308500   1998.3745     -228538.32      0             -212006.73      43959.872      1470008      
    309000   2001.5471     -228600.23      0             -212042.39      43668.338      1470153.5    
    309500   1991.4291     -228549.42      0             -212075.29      43740.986      1470298.9    
    310000   1999.61       -228638.8       0             -212096.99      43130.369      1470444.3    
    310500   1996.2492     -228611.63      0             -212097.62      43483.023      1470589.5    
    311000   1989.7225     -228514.18      0             -212054.16      43632.457      1470734.7    
    311500   2004.9435     -228562.54      0             -211976.6       43582.042      1470879.9    
    312000   2001.4306     -228486.11      0             -211929.23      43696.797      1471024.9    
    312500   2007.4689     -228525         0             -211918.18      43633.753      1471169.9    
    313000   2007.089      -228535.03      0             -211931.35      43581.253      1471314.9    
    313500   2004.7055     -228546.61      0             -211962.64      43651.672      1471459.8    
    314000   2000.3241     -228555.14      0             -212007.42      43364.058      1471604.7    
    314500   1992.264      -228536.15      0             -212055.1       43400.672      1471749.5    
    315000   1988.8842     -228543.91      0             -212090.82      43306.633      1471894.2    
    315500   1996.2682     -228622.23      0             -212108.06      42936.415      1472038.9    
    316000   1991.5312     -228561.97      0             -212086.99      43161.602      1472183.4    
    316500   1993.7035     -228494.63      0             -212001.68      43474.478      1472327.9    
    317000   2000.4982     -228484.16      0             -211935         43295.518      1472472.4    
    317500   2007.0248     -228510.33      0             -211907.18      42891.664      1472616.7    
    318000   2010.7645     -228535.98      0             -211901.89      42901.029      1472761      
    318500   2006.4784     -228516.18      0             -211917.55      42940.814      1472905.3    
    319000   2000.5411     -228502.36      0             -211952.85      43123.293      1473049.5    
    319500   1997.9996     -228529.61      0             -212001.12      43042.879      1473193.6    
    320000   1993.2042     -228533.21      0             -212044.39      42822.43       1473337.7    
    320500   1991.7278     -228546.68      0             -212070.07      42498.861      1473481.7    
    321000   1991.9646     -228548.23      0             -212069.67      42635.315      1473625.6    
    321500   1996.4505     -228533.97      0             -212018.3       42804.426      1473769.4    
    322000   2003.6309     -228499.81      0             -211924.73      42846.002      1473913.2    
    322500   2003.6007     -228459.07      0             -211884.25      43197.224      1474056.9    
    323000   2006.8435     -228484.78      0             -211883.13      42828.104      1474200.6    
    323500   2006.9716     -228506.1       0             -211903.39      43004.658      1474344.2    
    324000   2001.2668     -228495.45      0             -211939.93      42728.468      1474487.8    
    324500   2005.5063     -228573.75      0             -211983.16      42559.962      1474631.3    
    325000   1996.3969     -228534.74      0             -212019.51      42442.349      1474774.7    
    325500   1990.5957     -228507.19      0             -212039.95      42483.8        1474918.1    
    326000   1993.1861     -228524.39      0             -212035.72      42377.447      1475061.4    
    326500   1992.6694     -228463.11      0             -211978.71      42627.898      1475204.6    
    327000   2002.2169     -228454.9       0             -211891.52      42508.519      1475347.8    
    327500   1999.0844     -228392.03      0             -211854.56      42605.499      1475490.9    
    328000   2007.1328     -228457.38      0             -211853.33      42583.778      1475633.9    
    328500   2006.2383     -228475.04      0             -211878.39      42559.709      1475776.9    
    329000   2001.7931     -228482.7       0             -211922.83      42195.522      1475919.9    
    329500   1998.7931     -228507.84      0             -211972.79      42078.963      1476062.8    
    330000   1991.1632     -228480.3       0             -212008.36      42258.677      1476205.6    
    330500   1987.977      -228465.67      0             -212020.09      42334.304      1476348.3    
    331000   1995.6467     -228511.68      0             -212002.65      42025.118      1476491      
    331500   1998.7657     -228471.29      0             -211936.46      42285.256      1476633.5    
    332000   2001.9001     -228404.99      0             -211844.23      42251.314      1476776      
    332500   2009.9217     -228448.79      0             -211821.67      42175.813      1476918.5    
    333000   2008.8435     -228455.07      0             -211836.87      42316.02       1477060.9    
    333500   2001.8822     -228432         0             -211871.39      42250.086      1477203.3    
    334000   2000.7081     -228466.53      0             -211915.63      41971.918      1477345.6    
    334500   2003.6524     -228531.65      0             -211956.39      41273.829      1477487.9    
    335000   1994.1814     -228481.8       0             -211984.89      41962.72       1477630.1    
    335500   1992.4824     -228477.56      0             -211994.71      41783.221      1477772.2    
    336000   1998.7051     -228513.77      0             -211979.44      41886.846      1477914.2    
    336500   1993.9679     -228415.3       0             -211920.16      41969.878      1478056.2    
    337000   1995.6459     -228349.52      0             -211840.5       41933.327      1478198.1    
    337500   2004.3028     -228390.33      0             -211809.69      41863.61       1478340      
    338000   2003.3746     -228389.34      0             -211816.38      41797.084      1478481.8    
    338500   2001.9835     -228403.6       0             -211842.15      41790.79       1478623.5    
    339000   1999.8782     -228423.39      0             -211879.36      42141.546      1478765.2    
    339500   1999.5538     -228459.34      0             -211918         41751.015      1478906.9    
    340000   1996.4892     -228463.89      0             -211947.89      41384.942      1479048.5    
    340500   1991.4425     -228436.49      0             -211962.24      41388.77       1479190      
    341000   1994.1605     -228450.86      0             -211954.13      41354.401      1479331.4    
    341500   1993.3911     -228381.56      0             -211891.19      41731.7        1479472.7    
    342000   2006.1525     -228389.67      0             -211793.74      41578.643      1479614      
    342500   2012.4692     -228413.38      0             -211765.19      41755.831      1479755.3    
    343000   2004.036      -228357.05      0             -211778.62      41628.855      1479896.5    
    343500   2007.8772     -228429.94      0             -211819.74      41180.878      1480037.6    
    344000   1997.377      -228398.32      0             -211874.98      41584.532      1480178.7    
    344500   1995.4074     -228427.5       0             -211920.45      41138.167      1480319.8    
    345000   1992.1436     -228424.8       0             -211944.76      41289.325      1480460.8    
    345500   1992.6929     -228431.83      0             -211947.24      41125.214      1480601.7    
    346000   1997.0994     -228449.9       0             -211928.86      41201.853      1480742.5    
    346500   1992.5883     -228369.45      0             -211885.72      41355.545      1480883.3    
    347000   2004.201      -228395.15      0             -211815.36      41354.995      1481024      
    347500   2007.5917     -228367.12      0             -211759.27      41213.967      1481164.6    
    348000   1996.2368     -228267.39      0             -211753.48      41604.513      1481305.2    
    348500   2010.4016     -228404.43      0             -211773.34      41105.884      1481445.8    
    349000   2009.4536     -228427.81      0             -211804.57      40839.166      1481586.3    
    349500   2006.1093     -228439.36      0             -211843.78      40746.097      1481726.8    
    350000   1996.4371     -228397.9       0             -211882.33      40689.48       1481867.2    
    350500   1992.1672     -228392         0             -211911.76      41058.284      1482007.5    
    351000   1993.7412     -228418.78      0             -211925.51      40843.615      1482147.7    
    351500   1993.5133     -228410.83      0             -211919.45      40931.858      1482287.9    
    352000   1993.8139     -228369.75      0             -211875.88      40915.672      1482428      
    352500   2010.4087     -228423.26      0             -211792.11      40866.257      1482568.1    
    353000   2008.7948     -228364.39      0             -211746.6       40599.936      1482708      
    353500   1998.4533     -228278.14      0             -211745.89      41060.658      1482848      
    354000   1998.3849     -228302.41      0             -211770.73      40921.523      1482987.9    
    354500   2005.2683     -228399.77      0             -211811.15      40778.907      1483127.7    
    355000   2008.3397     -228466.49      0             -211852.46      40059.676      1483267.5    
    355500   1999.2358     -228422.26      0             -211883.54      40540.79       1483407.2    
    356000   1992.3784     -228379.5       0             -211897.51      40428.283      1483546.8    
    356500   1992.7935     -228380.5       0             -211895.08      40550.575      1483686.3    
    357000   1998.0405     -228404.4       0             -211875.57      40171.259      1483825.8    
    357500   1999.7571     -228373.97      0             -211830.94      40301.201      1483965.2    
    358000   2005.8936     -228323.47      0             -211729.67      40530.054      1484104.6    
    358500   2010.68       -228297.25      0             -211663.86      40808.928      1484243.9    
    359000   2004.5156     -228256.81      0             -211674.42      40954.916      1484383.2    
    359500   2010.5093     -228348.34      0             -211716.37      40322.825      1484522.4    
    360000   2004.2946     -228356.36      0             -211775.79      40131.106      1484661.6    
    360500   2002.2043     -228392.85      0             -211829.57      39974.614      1484800.8    
    361000   1994.3227     -228365.25      0             -211867.17      40130.306      1484939.8    
    361500   1986.0929     -228315.52      0             -211885.52      40396.615      1485078.8    
    362000   1993.9544     -228379.22      0             -211884.19      39985.281      1485217.7    
    362500   2002.9904     -228426.46      0             -211856.68      39929.91       1485356.5    
    363000   1999.9159     -228343.37      0             -211799.02      40180.395      1485495.3    
    363500   2006.0516     -228334.83      0             -211739.72      40034.734      1485634      
    364000   2007.9152     -228327.2       0             -211716.68      40195.327      1485772.6    
    364500   2008.7413     -228340.76      0             -211723.41      40087.11       1485911.3    
    365000   2000.2149     -228292.77      0             -211745.95      40356.077      1486049.8    
    365500   2001.5568     -228328.77      0             -211770.85      39898.752      1486188.3    
    366000   2006.2875     -228390.46      0             -211793.41      39689.778      1486326.8    
    366500   1999.2653     -228349.52      0             -211810.56      40040.651      1486465.2    
    367000   1992.7204     -228306.52      0             -211821.7       40141          1486603.5    
    367500   2002.7724     -228392.41      0             -211824.44      39528.916      1486741.8    
    368000   2003.9817     -228394.36      0             -211816.38      39449.713      1486880      
    368500   2001.3114     -228338.46      0             -211782.57      39781.326      1487018.1    
    369000   2001.3312     -228247.24      0             -211691.18      40208.445      1487156.2    
    369500   2008.695      -228250.46      0             -211633.49      39945.008      1487294.2    
    370000   2010.5116     -228266.45      0             -211634.45      39725.359      1487432.2    
    370500   2007.3369     -228280.78      0             -211675.05      39793.547      1487570.2    
    371000   2001.8165     -228294.77      0             -211734.7       39590.166      1487708.1    
    371500   2002.1514     -228347.84      0             -211785.01      39576.087      1487845.9    
    372000   2000.101      -228357.57      0             -211811.7       39364.055      1487983.7    
    372500   2002.2025     -228385.24      0             -211821.98      39280.162      1488121.4    
    373000   1996.7327     -228336.8       0             -211818.78      39201.523      1488259.1    
    373500   2000.6975     -228352.71      0             -211801.9       39316.577      1488396.6    
    374000   1993.6867     -228260.36      0             -211767.55      39537.941      1488534.1    
    374500   2004.9728     -228293.48      0             -211707.3       39178.764      1488671.6    
    375000   2006.9606     -228242.82      0             -211640.2       39554.727      1488808.9    
    375500   2010.7545     -228247.75      0             -211613.75      39618.325      1488946.3    
    376000   2007.7347     -228240.33      0             -211631.3       39406.07       1489083.6    
    376500   2006.1102     -228261.06      0             -211665.48      39488.94       1489220.8    
    377000   2003.0372     -228267.15      0             -211696.98      39259.513      1489358      
    377500   1999.511      -228268.48      0             -211727.49      39316.868      1489495.2    
    378000   2007.5728     -228365.19      0             -211757.51      38874.019      1489632.3    
    378500   2007.4662     -228390.24      0             -211783.44      38744.873      1489769.3    
    379000   1990.8468     -228269.44      0             -211800.12      38876.436      1489906.3    
    379500   1990.1547     -228267.65      0             -211804.06      39285.541      1490043.2    
    380000   1991.1764     -228257.9       0             -211785.86      39075.274      1490180      
    380500   2000.6119     -228278.71      0             -211728.61      38973.064      1490316.7    
    381000   2008.1293     -228273.07      0             -211660.78      39026.641      1490453.4    
    381500   2013.9722     -228291.09      0             -211630.46      39054.686      1490590      
[...]
   3908500   2001.396      -222048.49      0             -205491.9       188.17438      1779729.5    
   3909000   1998.6131     -222095.6       0             -205562.03      103.91819      1779730.9    
   3909500   1990.2783     -222070.86      0             -205606.25      259.07885      1779732.2    
   3910000   1986.4701     -222043.52      0             -205610.4      -152.86073      1779733.6    
   3910500   1991.9793     -222060.44      0             -205581.75      178.27871      1779734.9    
   3911000   1987.1513     -221971.23      0             -205532.48      530.67449      1779736.2    
   3911500   1999.1107     -222023.6       0             -205485.92      219.42169      1779737.6    
   3912000   2000.9465     -222019.18      0             -205466.31      390.71507      1779739      
   3912500   2001.6163     -222017.9       0             -205459.49     -12.047721      1779740.4    
   3913000   1993.311      -221949.17      0             -205459.47      295.42867      1779741.8    
   3913500   2004.5142     -222050.7       0             -205468.31      266.58764      1779743.2    
   3914000   2002.7055     -222054.56      0             -205487.14      124.99685      1779744.7    
   3914500   1997.3334     -222043.13      0             -205520.15      465.85408      1779746.1    
   3915000   1992.4536     -222050.56      0             -205567.94      23.091911      1779747.6    
   3915500   1989.1465     -222077.26      0             -205622.01     -347.45906      1779749.1    
   3916000   1981.7092     -222054.6       0             -205660.87      30.609788      1779750.5    
   3916500   1997.6575     -222180.06      0             -205654.4      -282.7359       1779751.8    
   3917000   1987.2582     -222016.17      0             -205576.53      154.25813      1779753.2    
   3917500   1995.4242     -221995.08      0             -205487.89     -61.3748        1779754.5    
   3918000   2000.3607     -221995.72      0             -205447.7      -35.47267       1779755.8    
   3918500   2001.6436     -221983.94      0             -205425.3      -103.90373      1779757.1    
   3919000   2003.1457     -221988.6       0             -205417.54     -40.203473      1779758.4    
   3919500   1998.2594     -221950.44      0             -205419.8      -50.84003       1779759.7    
   3920000   2002.9121     -222006.91      0             -205437.78      19.403987      1779761      
   3920500   2003.7635     -222049.93      0             -205473.76      118.52838      1779762.3    
   3921000   2004.0866     -222100.13      0             -205521.29     -1.5851404      1779763.7    
   3921500   1990.3042     -222025.88      0             -205561.05     -170.41158      1779765      
   3922000   1993.6122     -222067.12      0             -205574.92     -17.370643      1779766.3    
   3922500   1991.9064     -222030.58      0             -205552.49      86.177333      1779767.6    
   3923000   2000.3137     -222017.99      0             -205470.35     -81.793728      1779768.9    
   3923500   2005.4123     -221981.83      0             -205392.02      213.30352      1779770.1    
   3924000   2003.2573     -221944.69      0             -205372.71      300.90853      1779771.4    
   3924500   1996.2147     -221896.93      0             -205383.2       519.71991      1779772.7    
   3925000   2006.0875     -222009.64      0             -205414.24      530.0123       1779774.1    
   3925500   1999.9565     -222002.46      0             -205457.78     -161.75338      1779775.5    
   3926000   1997.3066     -222016.29      0             -205493.53     -193.34959      1779776.8    
   3926500   1997.9264     -222039.15      0             -205511.27     -3.2276203      1779778.2    
   3927000   1997.5045     -222034.41      0             -205510.02      141.19844      1779779.6    
   3927500   1998.5187     -222022.67      0             -205489.89      227.27401      1779781      
   3928000   2008.4089     -222036.47      0             -205421.87     -182.05037      1779782.4    
   3928500   2011.7274     -221974.21      0             -205332.16     -175.72633      1779783.8    
   3929000   2005.3479     -221892.24      0             -205302.96     -27.402698      1779785.2    
   3929500   2018.6073     -222015.35      0             -205316.38     -346.88362      1779786.6    
   3930000   2008.392      -221978.28      0             -205363.82      382.65793      1779788      
   3930500   2006.6955     -222023.87      0             -205423.44     -352.24911      1779789.5    
   3931000   1992.2332     -221941.76      0             -205460.97      250.50932      1779790.9    
   3931500   1998.2304     -222010.66      0             -205480.26     -151.20981      1779792.3    
   3932000   2000.4298     -222036.52      0             -205487.92      11.97048       1779793.7    
   3932500   1998.8104     -222024.32      0             -205489.12      110.52458      1779795.1    
   3933000   1988.5522     -221936.02      0             -205485.68      275.12976      1779796.5    
   3933500   1995.2988     -221976.22      0             -205470.07      111.61335      1779797.8    
   3934000   2003.5071     -222000.54      0             -205426.48      10.134685      1779799.2    
   3934500   2003.6704     -221939.57      0             -205364.17      242.73394      1779800.6    
   3935000   2016.8106     -222007.94      0             -205323.84      63.648602      1779802      
   3935500   2011.9064     -221966.19      0             -205322.66      301.12797      1779803.4    
   3936000   2002.5441     -221933.42      0             -205367.34      283.04113      1779804.9    
   3936500   2002.4862     -222003.27      0             -205437.66      167.33795      1779806.3    
   3937000   1986.6036     -221920.09      0             -205485.87     -119.4224       1779807.8    
   3937500   2003.5251     -222068.55      0             -205494.35     -101.50199      1779809.3    
   3938000   1990.4087     -221955.19      0             -205489.5       182.0641       1779810.8    
   3938500   1989.3893     -221929.49      0             -205472.22      177.27328      1779812.2    
   3939000   1997.0494     -221967.74      0             -205447.11      98.442363      1779813.6    
   3939500   1999.3416     -221955.27      0             -205415.68      66.193754      1779815.1    
   3940000   1993.5579     -221875.65      0             -205383.9       303.82081      1779816.6    
   3940500   2007.137      -221952.13      0             -205348.05     -258.70423      1779818.1    
   3941000   2013.1123     -221965.87      0             -205312.36      313.03698      1779819.5    
   3941500   2013.3387     -221938         0             -205282.62      115.50022      1779821.1    
   3942000   2015.6733     -221958.73      0             -205284.03      217.94772      1779822.6    
   3942500   2003.8904     -221915.07      0             -205337.85      20.210407      1779824.1    
   3943000   1992.6981     -221903.23      0             -205418.6       401.41216      1779825.7    
   3943500   2000.7843     -222017.17      0             -205465.64     -135.16297      1779827.3    
   3944000   1995.2274     -221992.2       0             -205486.64     -181.17021      1779828.8    
   3944500   1995.3393     -221999.44      0             -205492.95      95.890568      1779830.3    
   3945000   1997.8515     -222009.42      0             -205482.16     -54.891354      1779831.8    
   3945500   1999.668      -222002.54      0             -205460.24      287.60708      1779833.4    
   3946000   2005.0762     -222013.63      0             -205426.6      -203.91525      1779834.9    
   3946500   1996.6677     -221901.08      0             -205383.6       509.59366      1779836.4    
   3947000   2004.9387     -221928.26      0             -205342.37      506.49937      1779837.9    
   3947500   2010.1188     -221948.63      0             -205319.88      622.6126       1779839.5    
   3948000   2012.1705     -221980.1       0             -205334.38      25.718917      1779841.1    
   3948500   2005.3161     -221997.52      0             -205408.5      -236.45986      1779842.7    
   3949000   1992.1959     -221965.82      0             -205485.34     -126.99551      1779844.3    
   3949500   2003.5699     -222091.77      0             -205517.2      -240.66668      1779845.9    
   3950000   1992.7853     -222006.05      0             -205520.69     -201.41605      1779847.5    
   3950500   1992.7482     -221984.4       0             -205499.35     -187.08004      1779849      
   3951000   2005.1786     -222048.64      0             -205460.76     -86.977059      1779850.5    
   3951500   2004.7484     -222007.32      0             -205423         226.2089       1779852      
   3952000   1994.6179     -221892.93      0             -205392.42      208.06051      1779853.6    
   3952500   2000.4367     -221928.27      0             -205379.61      519.56646      1779855.1    
   3953000   2010.68       -222027.27      0             -205393.88      207.80699      1779856.6    
   3953500   1998.6931     -221996.47      0             -205462.24      274.20915      1779858.1    
   3954000   1998.4768     -222070.38      0             -205537.94     -637.83154      1779859.7    
   3954500   1991.262      -222048.19      0             -205575.44      178.22169      1779861.2    
   3955000   1984.0223     -221982.63      0             -205569.77     -196.44279      1779862.7    
   3955500   1991.3207     -222000.3       0             -205527.06     -173.58739      1779864.2    
   3956000   1997.2467     -221990.07      0             -205467.81     -86.98824       1779865.7    
   3956500   1997.7936     -221952.2       0             -205425.41      94.459628      1779867.2    
   3957000   2001.052      -221961.11      0             -205407.36     -45.729959      1779868.7    
   3957500   1999.0404     -221939.71      0             -205402.61      459.30861      1779870.1    
   3958000   2002.6873     -221976.45      0             -205409.18      188.20978      1779871.6    
   3958500   1999.7247     -221972.67      0             -205429.91      72.8019        1779873.1    
   3959000   1997.5803     -221985.52      0             -205460.5       0.52250956     1779874.5    
   3959500   1992.1444     -221988.36      0             -205508.3      -24.265247      1779876      
   3960000   1989.813      -222039.25      0             -205578.48     -133.89649      1779877.4    
   3960500   1985.6909     -222059.16      0             -205632.5      -449.35508      1779878.8    
   3961000   1988.7166     -222085.56      0             -205633.86     -297.27498      1779880.2    
   3961500   1984.8834     -221994.26      0             -205574.27     -342.41578      1779881.5    
   3962000   1993.5424     -221984.71      0             -205493.09     -87.55651       1779882.8    
   3962500   2004.0603     -222040.29      0             -205461.66     -141.30145      1779884.1    
   3963000   2002.9226     -222018.97      0             -205449.75      435.03406      1779885.3    
   3963500   1996.4644     -221961.4       0             -205445.6       320.55478      1779886.6    
   3964000   1999.4337     -221980.87      0             -205440.51      235.41868      1779887.9    
   3964500   1997.4191     -221961.32      0             -205437.63      302.78096      1779889.2    
   3965000   2004.2571     -222017.28      0             -205437.03     -286.35002      1779890.6    
   3965500   2000.022      -221983.89      0             -205438.67      133.38533      1779891.9    
   3966000   1994.3746     -221943.5       0             -205444.99      166.81268      1779893.2    
   3966500   2004.0131     -222034.81      0             -205456.57     -65.990778      1779894.5    
   3967000   2001.7812     -222033.84      0             -205474.07     -345.38343      1779895.9    
   3967500   1997.6561     -222024.05      0             -205498.4      -62.178414      1779897.2    
   3968000   1984.7372     -221933.9       0             -205515.12      113.5006       1779898.5    
   3968500   1986.3922     -221954         0             -205521.53      112.88168      1779899.8    
   3969000   1996.324      -222021.99      0             -205507.36     -121.21463      1779901.1    
   3969500   1996.6554     -221985.78      0             -205468.41      224.45116      1779902.4    
   3970000   2000.4977     -221966.71      0             -205417.56      265.39759      1779903.6    
   3970500   2008.2784     -221992.43      0             -205378.91      383.8608       1779904.9    
   3971000   2007.36       -221970.7       0             -205364.78      240.86989      1779906.2    
   3971500   2004.7711     -221961.85      0             -205377.34      162.85361      1779907.4    
   3972000   1999.7452     -221968.67      0             -205425.74      6.73366        1779908.7    
   3972500   1990.7336     -221978.65      0             -205510.27     -19.103395      1779910      
   3973000   1997.2426     -222080.29      0             -205558.06     -220.86174      1779911.3    
   3973500   1986.0591     -221985.07      0             -205555.35      40.702312      1779912.5    
   3974000   1989.4756     -221982.15      0             -205524.17     -319.42668      1779913.7    
   3974500   1998.6324     -222020.41      0             -205486.68     -125.59377      1779914.9    
   3975000   2000.8103     -222003.32      0             -205451.57     -269.62915      1779916.1    
   3975500   2004.8932     -222011.61      0             -205426.09     -181.07263      1779917.3    
   3976000   2012.1719     -222060.52      0             -205414.79     -65.334711      1779918.5    
   3976500   1998.7666     -221952.89      0             -205418.05      318.91094      1779919.6    
   3977000   2001.7073     -221986.95      0             -205427.78      291.94635      1779920.8    
   3977500   2000.8593     -221995.51      0             -205443.36      14.502597      1779922      
   3978000   1996.8751     -221979.02      0             -205459.83     -311.36585      1779923.1    
   3978500   1998.6093     -222022.88      0             -205489.34      137.17735      1779924.3    
   3979000   1992.9109     -222045.18      0             -205558.79     -299.26004      1779925.4    
   3979500   1991.0853     -222097.2       0             -205625.91     -451.67417      1779926.5    
   3980000   1988.307      -222082.71      0             -205634.4      -210.15319      1779927.6    
   3980500   1987.0853     -222030.18      0             -205591.97     -345.76601      1779928.6    
   3981000   1997.0017     -222039.13      0             -205518.9      -196.38737      1779929.6    
   3981500   2007.7917     -222076.72      0             -205467.22     -438.3321       1779930.6    
   3982000   2000.5486     -221989.45      0             -205439.87     -76.79663       1779931.5    
   3982500   2001.9794     -221984         0             -205422.59     -170.4968       1779932.4    
   3983000   2002.2826     -221980.37      0             -205416.44      526.5018       1779933.4    
   3983500   2008.1441     -222028.19      0             -205415.78     -97.945038      1779934.3    
   3984000   1998.3841     -221958.55      0             -205426.87      252.47649      1779935.2    
   3984500   2002.2894     -222017.36      0             -205453.38     -254.68958      1779936.1    
   3985000   1999.8604     -222044.65      0             -205500.76     -247.88173      1779937      
   3985500   1999.2644     -222086.41      0             -205547.45     -316.89631      1779937.9    
   3986000   1990.5464     -222043.57      0             -205576.73     -173.51317      1779938.7    
   3986500   1993.765      -222069.47      0             -205576.01     -402.74525      1779939.5    
   3987000   1999.4623     -222068.02      0             -205527.43     -480.07572      1779940.3    
   3987500   1996.0272     -221953.88      0             -205441.7       25.087567      1779941.1    
   3988000   2003.812      -221975.25      0             -205398.67      177.39847      1779941.8    
   3988500   2009.6721     -222021.71      0             -205396.66     -127.26801      1779942.6    
   3989000   2007.5863     -222020.09      0             -205412.29      36.416336      1779943.4    
   3989500   1996.1793     -221948.12      0             -205434.69      347.77192      1779944.1    
   3990000   1995.4484     -221972.7       0             -205465.31      167.0799       1779944.9    
   3990500   1990.9104     -221968.29      0             -205498.45      189.86398      1779945.7    
   3991000   1995.4912     -222035.29      0             -205527.55     -23.308377      1779946.5    
   3991500   1991.1439     -222023.85      0             -205552.07     -474.29055      1779947.2    
   3992000   1998.401      -222095.68      0             -205563.87     -387.91648      1779947.9    
   3992500   1992.0127     -222017.6       0             -205538.64     -125.53073      1779948.6    
   3993000   1989.204      -221933.3       0             -205477.57      251.67083      1779949.2    
   3993500   1997.3702     -221939.35      0             -205416.07      353.38085      1779949.8    
   3994000   2006.064      -221977.29      0             -205382.08      241.75084      1779950.4    
   3994500   2010.722      -222003.77      0             -205370.04      101.51335      1779951      
   3995000   2003.986      -221956.53      0             -205378.52      78.254839      1779951.7    
   3995500   2002.2085     -221967.33      0             -205404.02     -82.843051      1779952.3    
   3996000   2003.0991     -222022.39      0             -205451.72      123.88142      1779953      
   3996500   1996.3478     -222027.19      0             -205512.37     -344.87169      1779953.6    
   3997000   2000.2755     -222106.78      0             -205559.46     -722.40924      1779954.3    
   3997500   1987.2371     -222007.9       0             -205568.44     -155.82895      1779954.9    
   3998000   1998.3304     -222065.95      0             -205534.72     -280.27738      1779955.4    
   3998500   1996.9503     -221991.71      0             -205471.9       57.15442       1779955.9    
   3999000   2005.4162     -222022.01      0             -205432.16     -152.46953      1779956.4    
   3999500   2004.7316     -222006.19      0             -205422.01     -106.50434      1779956.9    
   4000000   1994.892      -221925.5       0             -205422.72      11.959152      1779957.4    
Loop time of 160166 on 4 procs for 4000000 steps with 64000 atoms

Performance: 2.158 ns/day, 11.123 hours/ns, 24.974 timesteps/s, 1.598 Matom-step/s
94.3% CPU use with 4 MPI tasks x no OpenMP threads

MPI task timing breakdown:
Section |  min time  |  avg time  |  max time  |%varavg| %total
---------------------------------------------------------------
Pair    | 1.1814e+05 | 1.3027e+05 | 1.4395e+05 |3337.9 | 81.34
Neigh   | 7876.6     | 8704.8     | 9595       | 875.5 |  5.43
Comm    | 2328.2     | 16961      | 29959      |9912.1 | 10.59
Output  | 1070.1     | 1070.1     | 1070.2     |   0.2 |  0.67
Modify  | 2882.2     | 2925.9     | 2978.3     |  73.4 |  1.83
Other   |            | 233.3      |            |       |  0.15

Nlocal:          16000 ave       16079 max       15928 min
Histogram: 1 0 1 0 0 0 1 0 0 1
Nghost:          18339 ave       18442 max       18237 min
Histogram: 1 0 0 1 0 0 1 0 0 1
Neighs:      1.604e+06 ave 1.61505e+06 max 1.59309e+06 min
Histogram: 1 0 0 1 0 1 0 0 0 1

Total # of neighbors = 6416007
Ave neighs/atom = 100.25011
Neighbor list builds = 167808
Dangerous builds = 0
Total wall time: 44:29:26
