LAMMPS (2 Aug 2023)
Lattice spacing in x,y,z = 5.5392 5.5392 5.5392
Created orthogonal box = (0 0 0) to (110.784 110.784 110.784)
  1 by 2 by 2 MPI processor grid
Created 64000 atoms
  using lattice units in orthogonal box = (0 0 0) to (110.784 110.784 110.784)
  create_atoms CPU = 0.003 seconds
32000 atoms in group Ba
32000 atoms in group O
WARNING: 23463 of 50000 force values in table Vash_11 are inconsistent with -dE/dr.
WARNING:  Should only be flagged at inflection points (../pair_table.cpp:466)
WARNING: 43814 of 50000 distance values in table 1e-06 with relative error
WARNING:  over Vash_11 to re-computed values (../pair_table.cpp:474)
WARNING: 23576 of 50000 force values in table Vash_12 are inconsistent with -dE/dr.
WARNING:  Should only be flagged at inflection points (../pair_table.cpp:466)
WARNING: 43814 of 50000 distance values in table 1e-06 with relative error
WARNING:  over Vash_12 to re-computed values (../pair_table.cpp:474)
WARNING: 23794 of 50000 force values in table Vash_22 are inconsistent with -dE/dr.
WARNING:  Should only be flagged at inflection points (../pair_table.cpp:466)
WARNING: 43814 of 50000 distance values in table 1e-06 with relative error
WARNING:  over Vash_22 to re-computed values (../pair_table.cpp:474)
Generated 0 of 1 mixed pair_coeff terms from geometric mixing rule
Neighbor list info ...
  update: every = 8 steps, delay = 0 steps, check = yes
  max neighbors/atom: 2000, page size: 100000
  master list distance cutoff = 11
  ghost atom cutoff = 11
  binsize = 5.5, bins = 21 21 21
  1 neighbor lists, perpetual/occasional/extra = 1 0 0
  (1) pair table, perpetual
      attributes: half, newton on
      pair build: half/bin/atomonly/newton
      stencil: half/bin/3d
      bin: standard
Setting up Verlet run ...
  Unit style    : metal
  Current step  : 0
  Time step     : 0.001
Per MPI rank memory allocation (min/avg/max) = 16.41 | 16.41 | 16.41 Mbytes
   Step          Temp          E_pair         E_mol          TotEng         Press          Volume    
         0   2500          -243821.04      0             -223139.74      15934.196      1359662.5    
       500   1318.0931     -233638.7       0             -222734.75      56978.227      1359664.3    
      1000   1375.9581     -233508.76      0             -222126.11      58024.056      1359669.6    
      1500   1411.0096     -233099.76      0             -221427.15      60162.21       1359678.6    
      2000   1469.4877     -232817.84      0             -220661.48      61780.726      1359691.3    
      2500   1519.7272     -232413.54      0             -219841.57      63802.164      1359707.9    
      3000   1581.7796     -232060.27      0             -218974.96      65637.494      1359728.6    
      3500   1630.1362     -231553.63      0             -218068.29      68412.293      1359753.4    
      4000   1698.6928     -231179.46      0             -217126.99      70563.46       1359782.4    
      4500   1753.908      -230665.48      0             -216156.24      72908.034      1359815.9    
      5000   1824.5603     -230256.2       0             -215162.48      75138.184      1359853.9    
      5500   1897.9272     -229851.95      0             -214151.31      77016.397      1359896.7    
      6000   1962.2466     -229362.76      0             -213130.03      80053.411      1359944.3    
      6500   2039.1562     -228974.85      0             -212105.89      81733.022      1359996.9    
      7000   2091.77       -228391.94      0             -211087.73      84631.801      1360054.7    
      7500   2161.0512     -227961.93      0             -210084.59      86869.001      1360117.8    
      8000   2221.0646     -227481.01      0             -209107.21      89082.015      1360186.3    
      8500   2294.4183     -227147.48      0             -208166.86      91022.507      1360260.4    
      9000   2340.7349     -226641.94      0             -207278.17      93578.042      1360340.3    
      9500   2400.8929     -226317.84      0             -206456.41      94908.34       1360425.9    
     10000   2448.5605     -225975.25      0             -205719.48      96600.934      1360517.5    
     10500   2482.4982     -225625.59      0             -205089.07      98235.991      1360615.1    
     11000   2529.4483     -225517.93      0             -204593.02      99173.384      1360718.9    
     11500   2542.7149     -225298.72      0             -204264.06      99736.563      1360828.8    
     12000   2554.0402     -225266.99      0             -204138.64      99899.932      1360944.8    
     12500   2547.4554     -225312.75      0             -204238.88      99752.834      1361067      
     13000   2536.992      -225512.39      0             -204525.07      98731.772      1361195.4    
     13500   2499.2777     -225569.42      0             -204894.09      98216.285      1361329.8    
     14000   2483.7771     -225783.59      0             -205236.5       97324.647      1361470.1    
     14500   2471.9718     -225928.13      0             -205478.69      96574.756      1361616.4    
     15000   2450.9067     -225852.97      0             -205577.8       96574.73       1361768.4    
     15500   2456.0929     -225831.94      0             -205513.87      96821.786      1361926.2    
     16000   2466.805      -225714.36      0             -205307.67      97296.805      1362089.6    
     16500   2497.3448     -225683.94      0             -205024.61      97371.233      1362258.6    
     17000   2512.296      -225531         0             -204747.98      98084.947      1362433.3    
     17500   2516.8287     -225363.59      0             -204543.07      98510.087      1362613.4    
     18000   2539.4964     -225464.21      0             -204456.17      98343.518      1362799.1    
     18500   2538.715      -225508.4       0             -204506.83      98172.806      1362990.2    
     19000   2517.1051     -225504.52      0             -204681.72      97891.055      1363186.5    
     19500   2517.0205     -225746.5       0             -204924.4       96925.724      1363388      
     20000   2486.2934     -225735.7       0             -205167.78      96765.303      1363594.5    
     20500   2479.1051     -225859.67      0             -205351.22      96012.861      1363805.8    
     21000   2468.8932     -225857.6       0             -205433.63      95754.273      1364021.8    
     21500   2467.6596     -225807.92      0             -205394.16      96178.234      1364242.2    
     22000   2487.9157     -225828.67      0             -205247.34      95412.051      1364467      
     22500   2502.1966     -225736.09      0             -205036.62      96025.213      1364696      
     23000   2504.8016     -225540.36      0             -204819.33      96931.253      1364929      
     23500   2527.9998     -225567.37      0             -204654.45      96996.73       1365166      
     24000   2521.7239     -225443.07      0             -204582.06      97145.397      1365406.6    
     24500   2527.6284     -225530.19      0             -204620.34      96875.799      1365650.8    
     25000   2507.5554     -225504.17      0             -204760.36      96661.635      1365898.3    
     25500   2506.1435     -225689.75      0             -204957.62      95881.785      1366148.9    
     26000   2489.9862     -225753.86      0             -205155.4       95163.916      1366402.3    
     26500   2474.0159     -225770.38      0             -205304.03      95274.322      1366658.3    
     27000   2478.2846     -225872.65      0             -205370.99      94851.809      1366916.7    
     27500   2470.8608     -225779.25      0             -205339         94744.355      1367177.2    
     28000   2492.0602     -225833.36      0             -205217.75      94322.037      1367439.6    
     28500   2502.549      -225743.99      0             -205041.6       94603.776      1367703.7    
     29000   2502.1849     -225562.58      0             -204863.2       95861.918      1367969.2    
     29500   2520.6969     -225578.77      0             -204726.25      95767.751      1368236      
     30000   2527.087      -225571.67      0             -204666.29      95650.284      1368503.8    
     30500   2518.7206     -225535         0             -204698.84      95447.034      1368772.5    
     31000   2510.2064     -225579.29      0             -204813.56      94915.521      1369041.9    
     31500   2493.9722     -225609.5       0             -204978.07      94757.48       1369311.6    
     32000   2487.3322     -225723.56      0             -205147.05      93917.826      1369581.4    
     32500   2484.5771     -225829.35      0             -205275.64      93704.574      1369851.2    
     33000   2480.4829     -225853.86      0             -205334.02      93537.762      1370120.8    
     33500   2472.5767     -225761.82      0             -205307.38      93710.567      1370389.9    
     34000   2488.4069     -225787.88      0             -205202.48      93561.061      1370658.3    
     34500   2504.369      -225769.13      0             -205051.69      93567.025      1370926      
     35000   2504.2702     -225611.66      0             -204895.04      93751.903      1371192.8    
     35500   2510.4152     -225543.1       0             -204775.64      94442.787      1371458.6    
     36000   2514.6131     -225527.62      0             -204725.43      94223.068      1371723.3    
     36500   2513.4722     -225547.7       0             -204754.95      94134.124      1371986.8    
     37000   2522.458      -225724.4       0             -204857.31      93221.582      1372249      
     37500   2504.3209     -225721.73      0             -205004.68      93042.46       1372509.7    
     38000   2496.2206     -225806.21      0             -205156.18      92520.653      1372769      
     38500   2482.3562     -225806.89      0             -205271.55      92260.181      1373026.6    
     39000   2489.9176     -225921.47      0             -205323.58      91772.077      1373282.7    
     39500   2486.5964     -225868.18      0             -205297.76      91841.092      1373537      
     40000   2486.0655     -225768.26      0             -205202.23      92122.723      1373789.6    
     40500   2493.3993     -225690.17      0             -205063.47      92286.511      1374040.6    
     41000   2504.6791     -225638.36      0             -204918.35      92626.566      1374289.8    
     41500   2518.7681     -225643.8       0             -204807.24      92608.136      1374537.5    
     42000   2514.8215     -225562.54      0             -204758.63      92489.44       1374783.5    
     42500   2524.1163     -225666.98      0             -204786.17      92365.057      1375027.9    
     43000   2508.4174     -225633.85      0             -204882.92      92340.551      1375270.8    
     43500   2494.8759     -225659         0             -205020.09      92027.83       1375512.3    
     44000   2487.2034     -225735.87      0             -205160.43      91667.367      1375752.2    
     44500   2478.4663     -225771.4       0             -205268.24      91002.725      1375990.7    
     45000   2489.9728     -225914.53      0             -205316.18      90826.803      1376227.9    
     45500   2484.3578     -225844.71      0             -205292.81      90808.094      1376463.7    
     46000   2489.7921     -225801.61      0             -205204.76      90931.929      1376698.3    
     46500   2496.9027     -225732.1       0             -205076.42      91216.104      1376931.7    
     47000   2512.0457     -225722.35      0             -204941.41      91202.193      1377164      
     47500   2513.2513     -225628.89      0             -204837.96      91373.339      1377395.4    
     48000   2518.2167     -225624.83      0             -204792.83      91041.327      1377626      
     48500   2507.8295     -225565.22      0             -204819.15      91615.067      1377855.7    
     49000   2515.8367     -225720.05      0             -204907.74      90634.184      1378084.8    
     49500   2493.8034     -225664.39      0             -205034.35      90973.452      1378313.2    
     50000   2499.0936     -225837.14      0             -205163.34      90134.329      1378541      
     50500   2474.5324     -225731.65      0             -205261.03      90106.386      1378768.4    
     51000   2492.0444     -225918.53      0             -205303.04      89095.068      1378995.2    
     51500   2490.7915     -225883.75      0             -205278.63      89525.262      1379221.7    
     52000   2492.2916     -225811.86      0             -205194.33      89782.686      1379447.8    
     52500   2494.0776     -225707.25      0             -205074.94      90115.691      1379673.8    
     53000   2505.9632     -225683.23      0             -204952.6       90089.881      1379899.5    
     53500   2505.715      -225590.77      0             -204862.19      90430.138      1380125.2    
     54000   2513.9811     -225623.2       0             -204826.24      90282.862      1380350.9    
     54500   2518.3384     -225687.17      0             -204854.17      90054.141      1380576.7    
     55000   2515.2009     -225745.8       0             -204938.75      89681.282      1380802.5    
     55500   2503.5919     -225768.03      0             -205057.01      89211.659      1381028.5    
     56000   2488.6246     -225762.16      0             -205174.96      88998.276      1381254.7    
     56500   2480.4289     -225781.95      0             -205262.56      88862.91       1381481      
     57000   2482.4513     -225834.57      0             -205298.44      88724.256      1381707.6    
     57500   2485.8793     -225837.68      0             -205273.19      88518.392      1381934.4    
     58000   2488.141      -225776.23      0             -205193.03      88735.672      1382161.4    
     58500   2495.4785     -225723.34      0             -205079.44      89080.482      1382388.8    
     59000   2514.2417     -225765.11      0             -204966         88640.649      1382616.5    
     59500   2512.3482     -225667.19      0             -204883.74      89407.13       1382844.6    
     60000   2511.7403     -225630.84      0             -204852.42      88917.029      1383073.1    
     60500   2517.2656     -225705.78      0             -204881.65      88873.708      1383302      
     61000   2496.2004     -225611.77      0             -204961.91      88889.931      1383531.4    
     61500   2503.9591     -225785.06      0             -205071         88451.094      1383761.1    
     62000   2496.8841     -225836.32      0             -205180.79      88091.784      1383991.2    
     62500   2488.4015     -225846.9       0             -205261.55      87746.178      1384221.8    
     63000   2488.9736     -225881.77      0             -205291.68      87250.183      1384452.6    
     63500   2486.8304     -225836.91      0             -205264.55      87315.608      1384683.8    
     64000   2495.0024     -225825.99      0             -205186.03      87444.489      1384915.4    
     64500   2494.0178     -225710.13      0             -205078.31      87811.829      1385147.3    
     65000   2502.6256     -225673.71      0             -204970.69      87901.359      1385379.5    
     65500   2506.3415     -225625.67      0             -204891.91      88057.514      1385612      
     66000   2508.5356     -225617.7       0             -204865.79      88119.894      1385844.9    
     66500   2517.4939     -225721.52      0             -204895.51      87781.426      1386078      
     67000   2497.055      -225631.97      0             -204975.03      87451.349      1386311.4    
     67500   2497.74       -225743.08      0             -205080.47      87220.644      1386545.1    
     68000   2501.0363     -225874.24      0             -205184.36      86812.43       1386778.9    
     68500   2497.0204     -225915.09      0             -205258.43      86430.455      1387012.9    
     69000   2484.255      -225835.75      0             -205284.7       86672.121      1387246.9    
     69500   2494.127      -225888.6       0             -205255.89      86064.644      1387481.1    
     70000   2501.6042     -225875.13      0             -205180.56      86026.962      1387715.2    
     70500   2495.2167     -225722.63      0             -205080.9       86905.622      1387949.4    
     71000   2508.5207     -225732.87      0             -204981.08      86715.64       1388183.6    
     71500   2511.5274     -225683.16      0             -204906.5       86600.757      1388417.7    
     72000   2510.499      -225647.84      0             -204879.69      86691.676      1388651.8    
     72500   2512.6521     -225693.54      0             -204907.57      86712.946      1388885.8    
     73000   2498.806      -225653.75      0             -204982.33      86678.861      1389119.7    
     73500   2498.2708     -225748.97      0             -205081.98      86366.243      1389353.5    
     74000   2484.0585     -225730.09      0             -205180.66      85760.408      1389587      
     74500   2494.0709     -225883.17      0             -205250.92      85410.733      1389820.2    
     75000   2490.9384     -225881.37      0             -205275.03      85266.086      1390053.2    
     75500   2487.395      -225825.94      0             -205248.91      85269.636      1390285.8    
     76000   2492.4763     -225798.32      0             -205179.26      85492.692      1390518.1    
     76500   2498.9971     -225756.42      0             -205083.41      85232.73       1390749.9    
     77000   2504.3638     -225706.08      0             -204988.68      85374.92       1390981.4    
     77500   2508.5879     -225674.81      0             -204922.46      85615.458      1391212.5    
     78000   2508.646      -225653.23      0             -204900.41      86022.709      1391443.1    
     78500   2506.6615     -225663.96      0             -204927.56      85614.612      1391673.2    
     79000   2507.5239     -225738.62      0             -204995.08      85044.525      1391902.9    
     79500   2509.0556     -225842.27      0             -205086.06      84890.056      1392132      
     80000   2491.6263     -225789.78      0             -205177.75      85057.188      1392360.6    
     80500   2488.8126     -225833.08      0             -205244.33      84460.803      1392588.5    
     81000   2495.0219     -225908.69      0             -205268.57      84086.989      1392815.9    
     81500   2496.7138     -225898.63      0             -205244.51      83970.237      1393042.6    
     82000   2494.4821     -225815.05      0             -205179.4       84237.07       1393268.6    
     82500   2502.7364     -225794.24      0             -205090.3       84081.033      1393494      
     83000   2502.6949     -225706.69      0             -205003.1       84332.282      1393718.7    
     83500   2508.5981     -225691.21      0             -204938.78      84315.848      1393942.8    
     84000   2508.3289     -225665.31      0             -204915.11      84466.887      1394166.2    
     84500   2504.6792     -225658.5       0             -204938.49      84397.179      1394388.9    
     85000   2516.2293     -225817.07      0             -205001.51      83816.341      1394610.9    
     85500   2510.581      -225856.75      0             -205087.92      83473.852      1394832.2    
     86000   2495.1575     -225812.22      0             -205170.98      83387.651      1395052.7    
     86500   2488.8161     -225819.28      0             -205230.5       83351.448      1395272.6    
     87000   2475.8309     -225735.8       0             -205254.44      83704.479      1395491.6    
     87500   2491.787      -225847.5       0             -205234.15      83061.397      1395709.9    
     88000   2492.5955     -225794.58      0             -205174.54      83358.873      1395927.5    
     88500   2501.2232     -225783.57      0             -205092.16      83251.464      1396144.3    
     89000   2494.452      -225645.44      0             -205010.04      83870.261      1396360.3    
     89500   2508.1222     -225700.93      0             -204952.44      83426.779      1396575.7    
     90000   2501.0769     -225621.41      0             -204931.2       83582.201      1396790.3    
     90500   2500.6273     -225637.77      0             -204951.28      83577.469      1397004.2    
     91000   2506.4647     -225742.97      0             -205008.19      83205.495      1397217.5    
     91500   2495.1147     -225730.33      0             -205089.44      82993.244      1397430      
     92000   2491.9191     -225787.13      0             -205172.68      82856.92       1397641.7    
     92500   2502.3604     -225934.6       0             -205233.77      81921.625      1397852.8    
     93000   2486.646      -225827.66      0             -205256.83      82473.111      1398063.2    
     93500   2492.7106     -225857.01      0             -205236.01      82138.76       1398272.8    
     94000   2491.7707     -225789.15      0             -205175.93      82388.187      1398481.7    
     94500   2500.7191     -225778.6       0             -205091.35      82140.111      1398690      
     95000   2494.4297     -225643.84      0             -205008.62      82873.55       1398897.6    
     95500   2516.3548     -225764.85      0             -204948.25      82405.552      1399104.5    
     96000   2513.8759     -225721.97      0             -204925.88      82412.468      1399310.9    
     96500   2510.9503     -225718.62      0             -204946.74      82277.093      1399516.6    
     97000   2507.3102     -225747.18      0             -205005.4       82214.318      1399721.7    
     97500   2498.217      -225754.94      0             -205088.39      82120.167      1399926.3    
     98000   2493.3129     -225799.05      0             -205173.07      81643.359      1400130.2    
     98500   2494.2408     -225868.14      0             -205234.48      81283.725      1400333.6    
     99000   2484.4756     -225808.65      0             -205255.78      81433.567      1400536.3    
     99500   2479.4753     -225743.49      0             -205231.98      81496.875      1400738.5    
    100000   2507.0171     -225908.62      0             -205169.27      81023.572      1400940.1    
    100500   2497.5286     -225745.11      0             -205084.26      81680.344      1401141.2    
    101000   2493.08       -225623.62      0             -204999.57      81708.28       1401341.7    
    101500   2517.1815     -225761.28      0             -204937.85      81264.284      1401541.8    
    102000   2522.5282     -225783.16      0             -204915.5       81346.135      1401741.4    
    102500   2499.8912     -225619.11      0             -204938.71      81866.558      1401940.5    
    103000   2513.9535     -225798.48      0             -205001.74      80991.503      1402139.2    
    103500   2502.4256     -225789.51      0             -205088.15      81127.212      1402337.4    
    104000   2505.3927     -225901.28      0             -205175.37      80490.585      1402535.2    
    104500   2483.2954     -225780.68      0             -205237.57      80724.844      1402732.6    
    105000   2472.1163     -225711.16      0             -205260.53      80818.183      1402929.4    
    105500   2484.1156     -225787.66      0             -205237.76      80531.16       1403125.9    
    106000   2490.3828     -225774.89      0             -205173.14      80369.022      1403321.9    
    106500   2498.1062     -225750.3       0             -205084.67      80685.167      1403517.5    
    107000   2508.4436     -225747.8       0             -204996.65      80629.731      1403712.8    
    107500   2508.2338     -225682.53      0             -204933.11      80464.477      1403907.6    
    108000   2501.4375     -225605.3       0             -204912.1       80966.54       1404102.1    
    108500   2499.4809     -225613.64      0             -204936.63      80700.251      1404296.3    
    109000   2505.3507     -225725.16      0             -204999.59      80292.329      1404490.2    
    109500   2502.4462     -225787.23      0             -205085.69      80264.601      1404683.7    
    110000   2500.401      -225856         0             -205171.38      79729.277      1404876.9    
    110500   2494.677      -225871.61      0             -205234.35      79750.376      1405069.8    
    111000   2482.7073     -225793.91      0             -205255.67      79689.598      1405262.4    
    111500   2487.977      -225811.54      0             -205229.7       79559.272      1405454.6    
    112000   2504.0365     -225879.77      0             -205165.07      79498.659      1405646.5    
    112500   2503.345      -225786.79      0             -205077.82      79699.223      1405838.1    
    113000   2503.4887     -225703.47      0             -204993.31      80045.764      1406029.4    
    113500   2498.9582     -225605.95      0             -204933.27      79919.928      1406220.5    
    114000   2507.4795     -225657.05      0             -204913.87      80248.856      1406411.3    
    114500   2505.2306     -225665.16      0             -204940.59      79582.13       1406601.8    
    115000   2496.6961     -225659.9       0             -205005.94      79832.944      1406792.2    
    115500   2499.2917     -225764.52      0             -205089.08      79304.834      1406982.3    
    116000   2498.4684     -225837.29      0             -205168.66      78847.498      1407172.2    
    116500   2488.2702     -225806.97      0             -205222.71      78770.506      1407361.8    
    117000   2489.0201     -225829.01      0             -205238.54      78696.156      1407551.1    
    117500   2492.1102     -225827.59      0             -205211.56      78701.914      1407740.2    
    118000   2492.1403     -225765.29      0             -205149.01      78990.516      1407929.1    
    118500   2501.7722     -225760.96      0             -205065         79120.267      1408117.7    
    119000   2502.3374     -225685.34      0             -204984.71      79107.488      1408306.2    
    119500   2506.382      -225661.7       0             -204927.6       79054.523      1408494.4    
    120000   2520.3519     -225762         0             -204912.33      78942.4        1408682.4    
    120500   2506.3337     -225673.73      0             -204940.03      78888.917      1408870.3    
    121000   2498.9537     -225677.92      0             -205005.28      78444.281      1409058      
    121500   2493.1238     -225713.15      0             -205088.73      78572.939      1409245.5    
    122000   2490.5308     -225770.3       0             -205167.33      78212.179      1409432.8    
    122500   2493.4735     -225844.82      0             -205217.51      77922.995      1409619.9    
    123000   2498.007      -225894.52      0             -205229.7       77700.031      1409806.7    
    123500   2489.3904     -225793.21      0             -205199.68      77851.285      1409993.4    
    124000   2498.7        -225805.6       0             -205135.05      77945.699      1410179.9    
    124500   2501.5301     -225747.57      0             -205053.61      78086.123      1410366.2    
    125000   2504.8182     -225699.2       0             -204978.05      78227.84       1410552.3    
    125500   2512.2069     -225710.6       0             -204928.32      78305.369      1410738.2    
    126000   2506.564      -225652.11      0             -204916.51      78285.413      1410924      
    126500   2505.8834     -225676.32      0             -204946.35      77798.784      1411109.7    
    127000   2505.0794     -225733.25      0             -205009.93      77917.834      1411295.2    
    127500   2493.1944     -225713.63      0             -205088.63      77886.383      1411480.5    
    128000   2494.5851     -225797.94      0             -205161.44      77269.618      1411665.7    
    128500   2491.7498     -225819.73      0             -205206.68      77084.48       1411850.7    
    129000   2484.1153     -225765.82      0             -205215.93      77365.547      1412035.5    
    129500   2498.287      -225853.92      0             -205186.79      76903.524      1412220.2    
    130000   2493.2451     -225750.61      0             -205125.19      77038.889      1412404.6    
    130500   2504.587      -225768.69      0             -205049.45      77090.48       1412588.9    
    131000   2510.5373     -225749.08      0             -204980.61      77332.352      1412773      
    131500   2499.8986     -225617.32      0             -204936.86      77619.227      1412957      
    132000   2501.8983     -225624.52      0             -204927.52      77563.908      1413140.9    
    132500   2509.275      -225713.46      0             -204955.43      77121.152      1413324.6    
    133000   2510.714      -225781.66      0             -205011.73      76687.502      1413508.2    
    133500   2496.4837     -225734.17      0             -205081.95      76864.889      1413691.6    
    134000   2498.5277     -225815.76      0             -205146.64      76423.502      1413874.9    
    134500   2489.886      -225786.15      0             -205188.52      76425.241      1414058      
    135000   2497.632      -225856.32      0             -205194.61      76150.909      1414240.9    
    135500   2497.1831     -225823.1       0             -205165.1       76091.842      1414423.7    
    136000   2493.971      -225739.6       0             -205108.18      76141.511      1414606.3    
    136500   2495.7378     -225683.9       0             -205037.86      76513.166      1414788.7    
    137000   2511.0972     -225746.56      0             -204973.46      76400.149      1414971      
    137500   2511.163      -225705.72      0             -204932.07      76604.507      1415153.2    
    138000   2506.9374     -225663.91      0             -204925.22      76572.694      1415335.2    
    138500   2505.3386     -225679.93      0             -204954.46      76405.382      1415517.1    
    139000   2509.4861     -225771.47      0             -205011.7       75976.348      1415698.9    
    139500   2494.9133     -225719.3       0             -205080.08      76074.127      1415880.6    
    140000   2493.3375     -225767.52      0             -205141.34      75741.683      1416062.1    
    140500   2492.5124     -225798.53      0             -205179.17      75621.856      1416243.4    
    141000   2492.3657     -225801.2       0             -205183.06      75311.002      1416424.6    
    141500   2493.8944     -225784.98      0             -205154.18      75346.15       1416605.6    
    142000   2504.8417     -225820.97      0             -205099.62      75228.623      1416786.4    
    142500   2494.9241     -225673.69      0             -205034.38      75846.343      1416967.1    
    143000   2510.8668     -225744.73      0             -204973.54      75335.243      1417147.7    
    143500   2505.7563     -225662.48      0             -204933.56      75826.46       1417328.2    
    144000   2507.8435     -225670.04      0             -204923.85      75912.828      1417508.5    
    144500   2499.5707     -225626.89      0             -204949.14      75792.276      1417688.7    
    145000   2510.0932     -225766.98      0             -205002.18      75456.196      1417868.8    
    145500   2505.3942     -225793.88      0             -205067.95      75144.89       1418048.7    
    146000   2499.1341     -225804.84      0             -205130.7       74896.459      1418228.5    
    146500   2484.9942     -225727.84      0             -205170.68      75142.582      1418408.2    
    147000   2490.2805     -225779.91      0             -205179.02      75011.945      1418587.7    
    147500   2492.9314     -225771.6       0             -205148.78      75067.703      1418767.1    
    148000   2503.411      -225801.83      0             -205092.31      74520.338      1418946.3    
    148500   2508.1185     -225773.66      0             -205025.2       74951.295      1419125.3    
    149000   2506.6567     -225700.22      0             -204963.85      75038.963      1419304.3    
    149500   2507.7968     -225670.84      0             -204925.04      75168.811      1419483.1    
    150000   2500.1536     -225599.89      0             -204917.32      75364.392      1419661.8    
    150500   2507.7828     -225689.08      0             -204943.39      74901.708      1419840.4    
    151000   2496.7557     -225652.84      0             -204998.38      74714.167      1420018.9    
    151500   2504.0329     -225777.04      0             -205062.38      74337.956      1420197.2    
    152000   2501.694      -225816.35      0             -205121.04      74009.17       1420375.4    
    152500   2499.6844     -225838.2       0             -205159.51      73938.369      1420553.5    
    153000   2488.7636     -225753.39      0             -205165.04      74181.902      1420731.4    
    153500   2494.0566     -225766.45      0             -205134.32      74278.07       1420909.2    
    154000   2482.233      -225611.02      0             -205076.7       74342.677      1421086.8    
    154500   2502.1124     -225707.95      0             -205009.18      74267.831      1421264.3    
    155000   2512.1236     -225731.77      0             -204950.18      74057.081      1421441.7    
    155500   2505.8954     -225643.96      0             -204913.89      74561.325      1421618.9    
    156000   2511.8792     -225689.86      0             -204910.29      73940.523      1421796      
    156500   2506.7944     -225676.37      0             -204938.86      74261.958      1421973.1    
    157000   2499.4975     -225671.44      0             -204994.3       74086.36       1422150      
    157500   2499.7357     -225737.96      0             -205058.85      73611.652      1422326.8    
    158000   2502.0167     -225814.1       0             -205116.12      73474.932      1422503.4    
    158500   2488.0227     -225731.66      0             -205149.44      73454.337      1422680      
    159000   2495.5215     -225794.15      0             -205149.9       73507.403      1422856.4    
    159500   2494.6289     -225755.49      0             -205118.63      73189.198      1423032.6    
    160000   2493.9112     -225694.71      0             -205063.78      73485.572      1423208.7    
    160500   2503.0706     -225707.16      0             -205000.46      73327.347      1423384.7    
    161000   2511.4602     -225720.64      0             -204944.53      73364.129      1423560.6    
    161500   2516.0358     -225725.89      0             -204911.93      73269.024      1423736.4    
    162000   2509.5256     -225669.43      0             -204909.33      73439.663      1423912      
    162500   2499.1509     -225613.65      0             -204939.37      73614.298      1424087.6    
    163000   2504.8662     -225714.63      0             -204993.07      73011.099      1424263.1    
    163500   2503.5369     -225765.31      0             -205054.75      72552.586      1424438.4    
    164000   2494.6556     -225743.75      0             -205106.67      72897.266      1424613.6    
    164500   2493.7592     -225765.26      0             -205135.59      72619.742      1424788.7    
    165000   2491.0825     -225740.91      0             -205133.38      72842.701      1424963.6    
    165500   2485.9631     -225665.1       0             -205099.92      73266.998      1425138.5    
    166000   2496.4441     -225695.4       0             -205043.51      73160.886      1425313.2    
    166500   2494.7067     -225617.93      0             -204980.42      73072.776      1425487.7    
    167000   2501.3191     -225619.74      0             -204927.52      73094.419      1425662.2    
    167500   2509.8191     -225660.08      0             -204897.55      73012.791      1425836.6    
    168000   2501.92       -225596.49      0             -204899.31      73398.501      1426010.9    
    168500   2505.6394     -225660.19      0             -204932.23      72761.877      1426185      
    169000   2519.733      -225831.71      0             -204987.17      72089.389      1426359.1    
    169500   2495.8227     -225696.45      0             -205049.7       72225.672      1426533.1    
    170000   2497.695      -225763.56      0             -205101.32      72051.246      1426706.9    
    170500   2489.4495     -225723.13      0             -205129.11      72028.427      1426880.6    
    171000   2497.6055     -225786.75      0             -205125.26      71935.065      1427054.2    
    171500   2490.8883     -225695.82      0             -205089.9       72031.255      1427227.7    
    172000   2498.8186     -225703.85      0             -205032.32      72204.194      1427401      
    172500   2503.3425     -225676.99      0             -204968.04      72283.066      1427574.3    
    173000   2503.4205     -225623.19      0             -204913.59      72498.453      1427747.4    
    173500   2508.7187     -225638.98      0             -204885.56      71866.908      1427920.4    
    174000   2514.1859     -225688.28      0             -204889.63      72065.977      1428093.3    
    174500   2490.9355     -225531.05      0             -204924.73      72188.491      1428266.2    
    175000   2500.9077     -225668.63      0             -204979.82      71794.498      1428438.9    
    175500   2500.6323     -225726.78      0             -205040.25      71404.618      1428611.5    
    176000   2488.2577     -225675.48      0             -205091.32      71923.484      1428784      
    176500   2487.04       -225693.24      0             -205119.16      71322.967      1428956.4    
    177000   2489.9022     -225713.74      0             -205115.97      71451.963      1429128.7    
    177500   2495.236      -225724.29      0             -205082.4       71517.714      1429300.8    
    178000   2493.8091     -225656.05      0             -205025.96      71255.808      1429472.8    
    178500   2501.0136     -225651.84      0             -204962.16      71395.479      1429644.8    
    179000   2509.0701     -225665.62      0             -204909.28      71629.917      1429816.6    
    179500   2510.4573     -225648.74      0             -204880.93      71481.332      1429988.3    
    180000   2507.7629     -225629.61      0             -204884.1       71790.876      1430160      
    180500   2506.8824     -225657.47      0             -204919.24      71122.451      1430331.5    
    181000   2498.8695     -225647.4       0             -204975.46      71289.753      1430503      
    181500   2504.442      -225753.39      0             -205035.35      70857.689      1430674.3    
    182000   2501.4515     -225775.9       0             -205082.6       70744.687      1430845.6    
    182500   2499.4369     -225780.32      0             -205103.67      70433.785      1431016.7    
    183000   2486.7803     -225664.73      0             -205092.79      70845.623      1431187.8    
    183500   2495.8223     -225698.55      0             -205051.81      70546.138      1431358.7    
    184000   2497.9931     -225656.57      0             -204991.87      70668.334      1431529.5    
    184500   2511.6195     -225707.98      0             -204930.56      70463.219      1431700.2    
    185000   2509.7501     -225647.17      0             -204885.21      70431.681      1431870.8    
    185500   2505.4266     -225594.67      0             -204868.48      70969.175      1432041.3    
    186000   2505.8967     -225615.25      0             -204885.17      70580.201      1432211.7    
    186500   2510.5881     -225699.64      0             -204930.75      70631.509      1432382.1    
    187000   2501.2967     -225683.53      0             -204991.5       70277.674      1432552.3    
    187500   2495.2024     -225690.73      0             -205049.11      70472.145      1432722.5    
    188000   2494.8409     -225726.51      0             -205087.89      70008.485      1432892.5    
    188500   2481.4922     -225627.51      0             -205099.32      70184.571      1433062.4    
    189000   2485.3716     -225639.67      0             -205079.39      70310.452      1433232.2    
    189500   2495.7576     -225676.68      0             -205030.47      70360.962      1433401.9    
    190000   2507.0833     -225707.64      0             -204967.75      69832.181      1433571.5    
    190500   2507.3477     -225648.58      0             -204906.5       70171.946      1433741.1    
    191000   2508.8157     -225620.07      0             -204865.84      70255.954      1433910.5    
    191500   2513.6083     -225648.57      0             -204854.7       70105.561      1434079.8    
    192000   2497.3939     -225534.95      0             -204875.21      70337.363      1434249.1    
    192500   2491.8798     -225537.68      0             -204923.56      70091.81       1434418.3    
    193000   2501.8649     -225679.85      0             -204983.13      69944.557      1434587.3    
    193500   2490.3898     -225639.51      0             -205037.71      69906.541      1434756.3    
    194000   2491.8723     -225687.4       0             -205073.34      69391.164      1434925.2    
    194500   2491.678      -225693.74      0             -205081.28      69405.485      1435094      
    195000   2486.9084     -225630.94      0             -205057.94      69599.878      1435262.7    
    195500   2493.1493     -225633.15      0             -205008.53      69564.075      1435431.2    
    196000   2504.4881     -225666.94      0             -204948.51      69548.221      1435599.7    
    196500   2499.562      -225570.05      0             -204892.37      69709.692      1435768      
    197000   2499.9786     -225533.79      0             -204852.66      69681.21       1435936.3    
    197500   2508.7303     -225594.81      0             -204841.29      69566.932      1436104.5    
    198000   2506.6241     -225599.1       0             -204863         69452.527      1436272.7    
    198500   2509.974      -225673.73      0             -204909.92      69329.032      1436440.7    
    199000   2507.4903     -225714.46      0             -204971.19      68871.918      1436608.7    
    199500   2499.4054     -225704.93      0             -205028.55      69072.418      1436776.6    
    200000   2500.9152     -225753.27      0             -205064.4       68409.189      1436944.4    
    200500   2487.505      -225646.53      0             -205068.59      68850.06       1437112      
    201000   2497.3072     -225698.83      0             -205039.81      68520.392      1437279.6    
    201500   2495.0187     -225628         0             -204987.9       68797.704      1437447      
    202000   2497.3297     -225585.78      0             -204926.57      68863.934      1437614.4    
    202500   2498.1465     -225539.26      0             -204873.3       69337.469      1437781.7    
    203000   2506.8225     -225578.53      0             -204840.79      68878.597      1437948.8    
    203500   2497.6329     -225500.54      0             -204838.82      68929.929      1438116      
    204000   2502.8379     -225571.04      0             -204866.26      69154.705      1438283      
    204500   2503.3279     -225625.68      0             -204916.85      68607.518      1438450      
    205000   2499.4845     -225652.82      0             -204975.79      68474.315      1438616.9    
    205500   2495.8966     -225675.9       0             -205028.54      68386.456      1438783.7    
    206000   2492.3065     -225677.07      0             -205059.41      68364.984      1438950.3    
    206500   2495.9629     -225704.81      0             -205056.91      68148.654      1439116.9    
    207000   2502.804      -225726.84      0             -205022.34      67821.801      1439283.4    
    207500   2494.7775     -225605.02      0             -204966.92      68253.093      1439449.8    
    208000   2500.8512     -225593.13      0             -204904.79      68411.898      1439616.1    
    208500   2507.8813     -225598.78      0             -204852.28      68292.295      1439782.3    
    209000   2510.8902     -225596.89      0             -204825.5       68247.843      1439948.4    
    209500   2516.1528     -225645.75      0             -204830.83      67912.04       1440114.5    
    210000   2509.2942     -225621.51      0             -204863.33      67841.273      1440280.4    
    210500   2504.1462     -225628.81      0             -204913.21      67974.331      1440446.4    
    211000   2484.3777     -225519.7       0             -204967.63      67989.663      1440612.2    
    211500   2489.8149     -225609.34      0             -205012.3       67667.013      1440778      
    212000   2487.2829     -225613.06      0             -205036.96      67676.232      1440943.6    
    212500   2494.3611     -225667.83      0             -205033.18      67491.593      1441109.2    
    213000   2488.9947     -225588.68      0             -204998.43      67525.239      1441274.6    
    213500   2492.9343     -225567.41      0             -204944.56      67664.461      1441440      
    214000   2501.6392     -225580.79      0             -204885.93      67670.075      1441605.3    
    214500   2505.2066     -225561.96      0             -204837.58      67779.339      1441770.5    
    215000   2503.7533     -225524.35      0             -204812         68073.137      1441935.6    
    215500   2506.1352     -225549.6       0             -204817.55      68105.689      1442100.7    
    216000   2512.75       -225636.19      0             -204849.41      67362.111      1442265.7    
    216500   2495.9492     -225546.71      0             -204898.92      67512.673      1442430.6    
    217000   2501.0863     -225644.25      0             -204953.97      67166.698      1442595.5    
    217500   2485.96       -225562.48      0             -204997.32      67383.64       1442760.2    
    218000   2501.3539     -225708.36      0             -205015.86      66792.357      1442924.9    
    218500   2490.8956     -225612.85      0             -205006.87      66895.955      1443089.5    
    219000   2494.8343     -225612.07      0             -204973.51      66970.051      1443254      
    219500   2502.2918     -225623.62      0             -204923.36      66740.563      1443418.3    
    220000   2496.8857     -225525.76      0             -204870.22      67352.905      1443582.6    
    220500   2505.8582     -225557.69      0             -204827.93      67096.01       1443746.9    
    221000   2505.3646     -225534.11      0             -204808.43      67553.178      1443911      
    221500   2495.2514     -225458.55      0             -204816.53      67506.382      1444075.1    
    222000   2500.5423     -225535.66      0             -204849.87      66992.927      1444239.2    
    222500   2496.631      -225552.59      0             -204899.16      66682.403      1444403.1    
    223000   2496.1073     -225595.98      0             -204946.89      66737.522      1444567      
    223500   2492.4298     -225602.93      0             -204984.25      66478.959      1444730.8    
    224000   2501.5016     -225694.07      0             -205000.34      66183.135      1444894.5    
    224500   2492.4422     -225607.58      0             -204988.8       66093.736      1445058.1    
    225000   2491.2311     -225561.74      0             -204952.98      66781.648      1445221.6    
    225500   2506.1371     -225635.77      0             -204903.7       66291.099      1445385      
    226000   2499.639      -225532.87      0             -204854.55      66562.954      1445548.4    
    226500   2501.0428     -225509.29      0             -204819.36      66611.471      1445711.7    
    227000   2502.4838     -225506.37      0             -204804.52      66414.271      1445874.9    
    227500   2506.3462     -225548.21      0             -204814.41      66425.993      1446038      
    228000   2502.4238     -225547.25      0             -204845.9       66429.578      1446201.1    
    228500   2487.962      -225474.19      0             -204892.47      66563.529      1446364.1    
    229000   2505.1003     -225662.44      0             -204938.95      65876.019      1446527      
    229500   2495.3074     -225613.98      0             -204971.5       65686.122      1446689.8    
    230000   2490.9164     -225588.92      0             -204982.77      65631.85       1446852.6    
    230500   2493.2516     -225590.4       0             -204964.93      65745.844      1447015.2    
    231000   2495.2351     -225566.87      0             -204924.99      65791.401      1447177.8    
    231500   2500.3841     -225558.15      0             -204873.67      65884.996      1447340.2    
    232000   2501.243      -225515.73      0             -204824.15      66407.806      1447502.6    
    232500   2513.6876     -225583.2       0             -204788.67      66162.409      1447665      
    233000   2503.3767     -225486.64      0             -204777.41      65829.083      1447827.2    
    233500   2503.8828     -225507.08      0             -204793.66      65987.02       1447989.4    
    234000   2505.6129     -225559.69      0             -204831.96      65675.149      1448151.6    
    234500   2499.8457     -225563.42      0             -204883.39      65290.069      1448313.6    
    235000   2487.8059     -225513.64      0             -204933.21      65710.692      1448475.6    
    235500   2484.7217     -225521.45      0             -204966.54      65456.96       1448637.5    
    236000   2500.4859     -225658.7       0             -204973.39      64855.405      1448799.3    
    236500   2490.1526     -225551.43      0             -204951.59      65450.633      1448961      
    237000   2495.9226     -225552.6       0             -204905.03      64944.576      1449122.7    
    237500   2506.7436     -225586.86      0             -204849.78      64873.305      1449284.2    
    238000   2504.1557     -225515.08      0             -204799.41      65553.079      1449445.7    
    238500   2508.7045     -225521.95      0             -204768.64      65153.382      1449607.1    
    239000   2503.894      -225476.32      0             -204762.81      65621.46       1449768.5    
    239500   2498.1891     -225449.92      0             -204783.6       65313.295      1449929.8    
    240000   2494.5005     -225462.88      0             -204827.07      65340.693      1450091      
    240500   2502.1611     -225578         0             -204878.82      64969.536      1450252.2    
    241000   2484.3929     -225476.79      0             -204924.6       65148.621      1450413.2    
    241500   2498.5024     -225622.15      0             -204953.24      64540.055      1450574.2    
    242000   2504.8473     -225676.36      0             -204954.96      64294.525      1450735.1    
    242500   2491.3013     -225539.2       0             -204929.86      64624.343      1450895.9    
    243000   2501.177      -225572.59      0             -204881.55      64428.102      1451056.6    
    243500   2501.9489     -225523.74      0             -204826.32      64758.451      1451217.2    
    244000   2509.2207     -225537.02      0             -204779.44      64469.52       1451377.8    
    244500   2512.9986     -225540.38      0             -204751.55      64663.691      1451538.3    
    245000   2496.7669     -225405.33      0             -204750.78      65042.615      1451698.7    
    245500   2504.6385     -225495.24      0             -204775.56      64726.454      1451859.1    
    246000   2499.5356     -225499.85      0             -204822.39      64356.739      1452019.4    
    246500   2502.2067     -225577.8       0             -204878.25      64023.556      1452179.6    
    247000   2499.2408     -225599.82      0             -204924.8       63795.486      1452339.7    
    247500   2484.7818     -225503.16      0             -204947.75      64418.4        1452499.8    
    248000   2493.1088     -225564.27      0             -204939.98      64374.05       1452659.8    
    248500   2494.0269     -225532.37      0             -204900.48      63973.064      1452819.6    
    249000   2501.1728     -225532.99      0             -204841.99      64387.986      1452979.5    
    249500   2501.7365     -225485.23      0             -204789.56      64240.914      1453139.2    
    250000   2506.8628     -225496.79      0             -204758.72      64558.803      1453298.9    
    250500   2512.2685     -225533.38      0             -204750.59      64080.834      1453458.5    
    251000   2506.4136     -225500.34      0             -204765.98      64171.954      1453618      
    251500   2504.4964     -225529.17      0             -204810.68      63949.268      1453777.5    
    252000   2490.5266     -225500.7       0             -204897.77      63859.933      1453937      
    252500   2488.7135     -225578.01      0             -204990.07      63626.917      1454096.3    
    253000   2486.1717     -225593.09      0             -205026.19      63485.189      1454255.5    
    253500   2481.5783     -225536         0             -205007.09      63273.494      1454414.7    
    254000   2498.0318     -225618.99      0             -204953.98      63150.265      1454573.7    
    254500   2505.9913     -225640.02      0             -204909.15      63059.481      1454732.7    
    255000   2499.8137     -225560.52      0             -204880.76      63434.778      1454891.6    
    255500   2495.9029     -225499.77      0             -204852.36      63532.876      1455050.4    
    256000   2495.0072     -225462.6       0             -204822.6       63496.494      1455209.1    
    256500   2510.2537     -225557.54      0             -204791.41      63101.564      1455367.8    
    257000   2502.9465     -225469.18      0             -204763.51      63570.351      1455526.4    
    257500   2505.5563     -225473.85      0             -204746.58      63489.7        1455684.9    
    258000   2501.4933     -225435.4       0             -204741.74      63618.865      1455843.4    
    258500   2510.7461     -225524.96      0             -204754.77      63169.238      1456001.8    
    259000   2496.7451     -225454.76      0             -204800.38      63394.665      1456160.2    
    259500   2492.4143     -225489.25      0             -204870.7       63070.699      1456318.5    
    260000   2487.8192     -225508.05      0             -204927.51      62961.467      1456476.7    
    260500   2493.1878     -225576.51      0             -204951.56      62562.27       1456634.8    
    261000   2492.405      -225552.49      0             -204934.02      62584.574      1456792.8    
    261500   2498.4627     -225533.34      0             -204864.76      62603.186      1456950.7    
    262000   2496.4311     -225437.33      0             -204785.55      63412.134      1457108.6    
    262500   2502.2793     -225450.11      0             -204749.95      62909.033      1457266.4    
    263000   2505.7406     -225474.98      0             -204746.19      63015.078      1457424.1    
    263500   2498.8442     -225431.29      0             -204759.55      62852.012      1457581.8    
    264000   2504.7373     -225503.4       0             -204782.91      62643.036      1457739.4    
    264500   2503.1699     -225519.54      0             -204812.01      62540.457      1457897      
    265000   2499.6116     -225527.64      0             -204849.56      62451.751      1458054.5    
    265500   2497.9529     -225563.4       0             -204899.03      62306.696      1458211.9    
    266000   2490.3946     -225559.28      0             -204957.44      62265.022      1458369.2    
    266500   2481.6646     -225527.64      0             -204998.01      61959.756      1458526.4    
    267000   2489.7754     -225582.46      0             -204985.74      61828.858      1458683.6    
    267500   2494.8352     -225542.36      0             -204903.78      61909.856      1458840.6    
    268000   2501.5013     -225509.88      0             -204816.16      62164.863      1458997.6    
    268500   2506.604      -225508.88      0             -204772.95      62403.089      1459154.5    
    269000   2496.0564     -225400.23      0             -204751.56      62451.328      1459311.3    
    269500   2507.3253     -225484.43      0             -204742.53      62255.398      1459468.1    
    270000   2501.7988     -225434.78      0             -204738.6       62502.622      1459624.8    
    270500   2501.8536     -225437.93      0             -204741.29      61850.429      1459781.5    
    271000   2493.4728     -225381.89      0             -204754.58      62337.653      1459938.1    
    271500   2498.0861     -225449.84      0             -204784.38      62173.578      1460094.7    
    272000   2497.9024     -225493.69      0             -204829.74      61808.266      1460251.2    
    272500   2477.9188     -225373.53      0             -204874.9       62070.075      1460407.6    
    273000   2491.1584     -225509.66      0             -204901.5       61809.509      1460564      
    273500   2491.6283     -225503.59      0             -204891.55      61463.372      1460720.3    
    274000   2490.6993     -225432.97      0             -204828.61      61890.046      1460876.5    
    274500   2497.4173     -225406.85      0             -204746.91      61967.222      1461032.6    
    275000   2500.5475     -225387.93      0             -204702.1       62115.685      1461188.7    
    275500   2508.9136     -225447.51      0             -204692.47      61777.374      1461344.7    
    276000   2506.4584     -225436.94      0             -204702.21      61912.199      1461500.6    
    276500   2495.3908     -225370.64      0             -204727.47      61862.221      1461656.5    
    277000   2502.0136     -225465.62      0             -204767.66      61782.986      1461812.4    
    277500   2489.8905     -225420.03      0             -204822.36      61667.839      1461968.2    
    278000   2490.427      -225503.17      0             -204901.06      61372.805      1462124      
    278500   2481.7427     -225515.96      0             -204985.7       61053.565      1462279.6    
    279000   2477.7456     -225520.91      0             -205023.71      61138.845      1462435.2    
    279500   2474.9186     -225455.21      0             -204981.4       61282.662      1462590.7    
    280000   2489.4225     -225447.89      0             -204854.1       61128.719      1462746      
    280500   2498.1656     -225456.6       0             -204790.48      60873.84       1462901.4    
    281000   2496.7098     -225412.52      0             -204758.44      61413.006      1463056.6    
    281500   2501.29       -225419.57      0             -204727.6       61223.248      1463211.8    
    282000   2506.6741     -225438.67      0             -204702.16      61083.649      1463366.9    
    282500   2502.7244     -225387.72      0             -204683.88      61336.615      1463522      
    283000   2505.2325     -225402.52      0             -204677.93      61027.023      1463677      
    283500   2500.5211     -225373.4       0             -204687.79      61088.275      1463832      
    284000   2498.9576     -225390.89      0             -204718.21      60981.647      1463987      
    284500   2496.9749     -225427.41      0             -204771.13      60682.756      1464141.9    
    285000   2502.5179     -225535.53      0             -204833.4       60469.458      1464296.7    
    285500   2487.774      -225461.21      0             -204881.05      60705.802      1464451.4    
    286000   2478.174      -225396.7       0             -204895.96      60718.105      1464606.1    
    286500   2490.407      -225457.07      0             -204855.13      60786.927      1464760.7    
    287000   2499.2538     -225422.14      0             -204747.01      60721.421      1464915.2    
    287500   2487.595      -225256.65      0             -204677.97      61046.803      1465069.7    
    288000   2508.8099     -225414.2       0             -204660.02      60556.113      1465224.1    
    288500   2501.0348     -225357.03      0             -204667.17      60716.633      1465378.5    
    289000   2498.9807     -225362.61      0             -204689.74      60948.73       1465532.8    
    289500   2505.491      -225454.66      0             -204727.94      60395.827      1465687.1    
    290000   2494.6415     -225412.94      0             -204775.97      60124.394      1465841.3    
    290500   2488.5973     -225409.99      0             -204823.02      60452.253      1465995.5    
    291000   2481.5276     -225387.13      0             -204858.64      59996.415      1466149.5    
    291500   2490.8978     -225474.56      0             -204868.56      59928.816      1466303.6    
    292000   2489.7474     -225416.24      0             -204819.76      59800.795      1466457.5    
    292500   2498.0755     -225386.51      0             -204721.13      60569.348      1466611.3    
    293000   2513.175      -225449.57      0             -204659.28      59822.807      1466765.1    
    293500   2506.2934     -225369.21      0             -204635.85      60440.385      1466918.9    
    294000   2517.5615     -225462.93      0             -204636.35      59827.241      1467072.6    
    294500   2507.0573     -225395.66      0             -204655.98      59919.307      1467226.2    
    295000   2504.7962     -225418.28      0             -204697.3       60198.104      1467379.8    
    295500   2500.884      -225445.29      0             -204756.67      59855.104      1467533.4    
    296000   2493.3861     -225448.52      0             -204821.93      59736.764      1467686.8    
    296500   2484.9627     -225429.07      0             -204872.16      59676.53       1467840.2    
    297000   2492.0982     -225503.7       0             -204887.77      59181.147      1467993.6    
    297500   2482.5022     -225369.06      0             -204832.51      59620.578      1468146.8    
    298000   2497.625      -225373.5       0             -204711.84      59899.856      1468300      
    298500   2502.6428     -225356.39      0             -204653.22      59772.899      1468453.1    
    299000   2504.9129     -225355.44      0             -204633.5       59790.955      1468606.1    
    299500   2504.8703     -225353.56      0             -204631.97      59705.078      1468759.1    
    300000   2505.7737     -225375.66      0             -204646.6       59514.278      1468912.1    
    300500   2496.8051     -225332.55      0             -204677.68      59555.559      1469065      
    301000   2499.619      -225397.38      0             -204719.23      59419.668      1469217.8    
    301500   2491.7472     -225381.17      0             -204768.14      59644.004      1469370.6    
    302000   2487.5758     -225389.33      0             -204810.81      59258.974      1469523.3    
    302500   2480.8619     -225353.86      0             -204830.88      59403.176      1469676      
    303000   2488.5332     -225389.27      0             -204802.83      59415.643      1469828.6    
    303500   2501.8824     -225407.1       0             -204710.22      58984.075      1469981.1    
    304000   2504.444      -225350.39      0             -204632.33      59350.42       1470133.5    
    304500   2505.8268     -225331.61      0             -204602.11      59248.175      1470285.9    
    305000   2503.0852     -225306.48      0             -204599.66      59482.289      1470438.2    
    305500   2506.4937     -225351.43      0             -204616.41      59022.798      1470590.5    
    306000   2508.5481     -225407.13      0             -204655.12      58812.159      1470742.8    
    306500   2502.2088     -225410.48      0             -204710.91      58588.102      1470895      
    307000   2493.5784     -225401         0             -204772.83      58603.362      1471047.1    
    307500   2495.4142     -225468.48      0             -204825.12      58435.237      1471199.1    
    308000   2491.3507     -225465.62      0             -204855.87      58590.37       1471351.1    
    308500   2488.0966     -225417.83      0             -204835         58319.915      1471503      
    309000   2497.9931     -225397.96      0             -204733.26      58494.437      1471654.8    
    309500   2498.2499     -225311.11      0             -204644.29      58572.689      1471806.6    
    310000   2501.3374     -225298.39      0             -204606.03      58959.12       1471958.2    
    310500   2505.8744     -225318.84      0             -204588.95      58638.196      1472109.9    
    311000   2497.2613     -225246.82      0             -204588.18      58767.688      1472261.5    
    311500   2502.7997     -225308.53      0             -204604.07      58808.382      1472413      
    312000   2509.382      -225397.66      0             -204638.75      58332.454      1472564.5    
    312500   2496.4298     -225345.03      0             -204693.27      58198.311      1472716      
    313000   2491.0882     -225362.72      0             -204755.14      58264.763      1472867.4    
    313500   2482.6636     -225336.77      0             -204798.89      57979.033      1473018.7    
    314000   2487.3549     -225386.04      0             -204809.35      58180.303      1473170      
    314500   2496.7913     -225409.07      0             -204754.31      58286.54       1473321.2    
    315000   2489.026      -225230.83      0             -204640.31      58377.439      1473472.3    
    315500   2494.3771     -225218.27      0             -204583.49      58638.759      1473623.3    
    316000   2502.0509     -225266.26      0             -204568         58440.406      1473774.4    
    316500   2498.7536     -225246.12      0             -204575.13      58431.197      1473925.3    
    317000   2489.9328     -225197.18      0             -204599.16      58631.555      1474076.3    
    317500   2499.1037     -225311.92      0             -204638.03      58181.413      1474227.2    
    318000   2491.2932     -225294.89      0             -204685.62      57884.478      1474378      
    318500   2491.0711     -225343.31      0             -204735.87      57540.145      1474528.8    
    319000   2483.4132     -225314.68      0             -204770.59      57712.741      1474679.5    
    319500   2487.0361     -225348.96      0             -204774.91      57769.926      1474830.1    
    320000   2498.2498     -225385.76      0             -204718.94      57759.807      1474980.6    
    320500   2492.8671     -225243.8       0             -204621.5       58171.299      1475131.1    
    321000   2496.3132     -225213.46      0             -204562.66      58240.037      1475281.6    
    321500   2512.2269     -225324.4       0             -204541.95      57505.43       1475431.9    
    322000   2513.4319     -225337.76      0             -204545.35      57851.914      1475582.3    
    322500   2506.3663     -225304.5       0             -204570.53      57761.313      1475732.6    
    323000   2503.9854     -225330.87      0             -204616.6       57798.734      1475882.9    
    323500   2493.5075     -225308.7       0             -204681.11      57613.953      1476033.1    
    324000   2494.403      -225380.27      0             -204745.27      57435.476      1476183.2    
    324500   2498.2728     -225450.87      0             -204783.85      56907.048      1476333.3    
    325000   2495.4296     -225419.38      0             -204775.89      56930.185      1476483.3    
    325500   2498.3252     -225344.92      0             -204677.47      57180.813      1476633.2    
    326000   2493.6637     -225202.89      0             -204574.01      57606.068      1476783.1    
    326500   2504.7888     -225258         0             -204537.08      57509.779      1476932.9    
    327000   2500.1974     -225209.79      0             -204526.86      57555.438      1477082.7    
    327500   2504.9955     -225260.77      0             -204538.14      57365.233      1477232.4    
    328000   2495.7029     -225213.9       0             -204568.15      57318.142      1477382.1    
    328500   2493.7796     -225248.32      0             -204618.48      57680.85       1477531.7    
    329000   2488.5473     -225259.29      0             -204672.73      57230.568      1477681.3    
    329500   2496.7848     -225370.14      0             -204715.43      56701.964      1477830.8    
    330000   2493.0739     -225357.69      0             -204733.69      56829.828      1477980.3    
    330500   2498.2455     -225371.29      0             -204704.5       56514.173      1478129.7    
    331000   2508.1876     -225351.91      0             -204602.88      56957.348      1478279      
    331500   2513.5562     -225315.61      0             -204522.17      56828.661      1478428.3    
    332000   2510.4831     -225265.38      0             -204497.36      57140.637      1478577.5    
    332500   2512.4574     -225287.93      0             -204503.57      56813.198      1478726.7    
    333000   2509.7846     -225293.42      0             -204531.18      56899.509      1478875.9    
    333500   2503.4747     -225284.6       0             -204574.55      56610.17       1479025      
    334000   2483.2673     -225174.51      0             -204631.63      57145.075      1479174.1    
    334500   2486.6724     -225256.6       0             -204685.56      56583.769      1479323      
    335000   2480.0422     -225239.18      0             -204722.98      57083.967      1479472      
    335500   2493.2598     -225357.73      0             -204732.18      56134.98       1479620.8    
    336000   2499.2045     -225348         0             -204673.28      56631.843      1479769.6    
    336500   2500.9042     -225252.97      0             -204564.19      56573.271      1479918.3    
    337000   2496.3515     -225156.07      0             -204504.95      56835.068      1480066.9    
    337500   2506.949      -225222.17      0             -204483.38      56501.084      1480215.5    
    338000   2501.8048     -225182.37      0             -204486.14      56945.413      1480364.1    
    338500   2492.577      -225130.39      0             -204510.5       56596.35       1480512.7    
    339000   2504.9693     -225277.02      0             -204554.61      56343.895      1480661.2    
    339500   2492.762      -225234.93      0             -204613.51      56400.577      1480809.6    
    340000   2494.9907     -225309.21      0             -204669.35      56115.391      1480958      
    340500   2497.7331     -225368.81      0             -204706.26      55721.934      1481106.3    
    341000   2489.1183     -225298.35      0             -204707.07      56129.052      1481254.6    
    341500   2495.0364     -225274.17      0             -204633.93      56252.016      1481402.8    
    342000   2500.3377     -225206.19      0             -204522.1       56406.574      1481550.9    
    342500   2510.7438     -225246.48      0             -204476.3       56235.563      1481698.9    
    343000   2512.809      -225254.22      0             -204466.96      56374.985      1481847      
    343500   2504.4482     -225196.84      0             -204478.74      56220.346      1481995      
    344000   2499.8462     -225191.76      0             -204511.73      56092.625      1482142.9    
    344500   2493.8743     -225194.56      0             -204563.93      56168.917      1482290.8    
    345000   2496.3714     -225270.99      0             -204619.71      55915.331      1482438.7    
    345500   2484.8675     -225220.04      0             -204663.93      55755.377      1482586.4    
    346000   2485.5535     -225247.2       0             -204685.4       55986.81       1482734.2    
    346500   2486.0307     -225224.49      0             -204658.75      55717.732      1482881.8    
    347000   2495.5115     -225199.48      0             -204555.31      55912.017      1483029.4    
    347500   2506.524      -225207.17      0             -204471.9       55377.54       1483176.9    
    348000   2504.883      -225165.46      0             -204443.77      55987.058      1483324.4    
    348500   2505.8682     -225176.21      0             -204446.36      56064.66       1483471.9    
    349000   2503.3733     -225181.38      0             -204472.18      55731.726      1483619.3    
    349500   2496.0178     -225167.93      0             -204519.58      55485.886      1483766.7    
    350000   2494.1366     -225211.12      0             -204578.33      55670.803      1483914      
    350500   2490.2303     -225227.86      0             -204627.38      55324.237      1484061.2    
    351000   2493.9011     -225286.24      0             -204655.39      55026.575      1484208.4    
    351500   2495.5583     -225292.45      0             -204647.89      55207.442      1484355.5    
    352000   2495.3814     -225209.03      0             -204565.94      55187.63       1484502.6    
    352500   2507.1249     -225202.62      0             -204462.38      55517.625      1484649.6    
    353000   2511.6441     -225198.62      0             -204421         55619.275      1484796.5    
    353500   2512.2255     -225199.89      0             -204417.46      55472.795      1484943.4    
    354000   2498.2031     -225108.74      0             -204442.31      55708.542      1485090.3    
    354500   2499.9558     -225168.82      0             -204487.89      55623.816      1485237.1    
    355000   2502.6437     -225246.17      0             -204543         54810.292      1485383.9    
    355500   2495.1409     -225237.02      0             -204595.92      54754.551      1485530.7    
    356000   2500.6394     -225320.93      0             -204634.34      55005.643      1485677.3    
    356500   2473.1889     -225098.68      0             -204639.17      55183.59       1485823.9    
    357000   2496.3648     -225225.67      0             -204574.45      55037.56       1485970.5    
    357500   2499.3838     -225136.27      0             -204460.07      55175.127      1486116.9    
    358000   2510.9469     -225178.84      0             -204406.99      55057.455      1486263.4    
    358500   2501.8495     -225093.19      0             -204396.59      55528.553      1486409.8    
    359000   2503.1132     -225122.25      0             -204415.19      55275.505      1486556.1    
    359500   2502.0109     -225153.65      0             -204455.71      54949.731      1486702.4    
    360000   2504.2995     -225230.77      0             -204513.9       54692.653      1486848.7    
    360500   2493.809      -225203.02      0             -204572.93      54965.564      1486994.9    
    361000   2493.9139     -225239.75      0             -204608.79      54429.786      1487141.1    
    361500   2497.9649     -225277.92      0             -204613.45      54626.888      1487287.1    
    362000   2500.4972     -225242.84      0             -204557.43      54508.704      1487433.2    
    362500   2514.0545     -225230.87      0             -204433.3       54610.949      1487579.1    
    363000   2502.6418     -225079.19      0             -204376.03      55303.813      1487725      
    363500   2501.8708     -225069.65      0             -204372.88      55036.127      1487870.9    
    364000   2509.6654     -225159.52      0             -204398.27      54578.536      1488016.8    
    364500   2495.1465     -225085.99      0             -204444.84      55004.03       1488162.6    
    365000   2490.8253     -225106.7       0             -204501.3       54467.11       1488308.4    
    365500   2490.1093     -225147.95      0             -204548.48      54274.038      1488454.1    
    366000   2499.1839     -225249.46      0             -204574.91      54072.973      1488599.7    
    366500   2497.3928     -225232.8       0             -204573.07      54388.856      1488745.3    
    367000   2507.3647     -225253.14      0             -204510.92      53948.2        1488890.7    
    367500   2494.2551     -225030.25      0             -204396.47      54999.871      1489036.2    
    368000   2507.1059     -225085.02      0             -204344.93      54476.54       1489181.6    
    368500   2514.4262     -225147.26      0             -204346.62      54159.898      1489327      
    369000   2502.5316     -225080.84      0             -204378.6       54358.538      1489472.3    
    369500   2502.2492     -225132.11      0             -204432.2       54237.26       1489617.6    
    370000   2504.5098     -225209.02      0             -204490.42      54015.005      1489762.9    
    370500   2501.4039     -225225.76      0             -204532.85      53922.809      1489908.1    
    371000   2489.4383     -225143.85      0             -204549.92      53820.94       1490053.2    
    371500   2500.2285     -225221.73      0             -204538.54      53922.991      1490198.3    
    372000   2503.9679     -225175.96      0             -204461.83      53748.254      1490343.3    
    372500   2511.7043     -225118.36      0             -204340.23      53835.861      1490488.2    
    373000   2515.2882     -225110.76      0             -204302.99      54121.416      1490633.2    
    373500   2511.2167     -225090.06      0             -204315.97      54311.927      1490778.1    
    374000   2502.4823     -225062.94      0             -204361.11      54015.008      1490922.9    
    374500   2505.0041     -225146.05      0             -204423.35      53851.651      1491067.8    
    375000   2499.539      -225157.8       0             -204480.31      53597.649      1491212.5    
    375500   2496.7897     -225169.65      0             -204514.91      53262.469      1491357.3    
    376000   2495.4303     -225166.98      0             -204523.49      53165.211      1491501.9    
    376500   2492.8157     -225124.78      0             -204502.91      53411.436      1491646.5    
    377000   2500.2911     -225125.53      0             -204441.82      53442.861      1491791      
    377500   2515.3375     -225146.93      0             -204338.75      53849.914      1491935.5    
    378000   2510.7779     -225051.64      0             -204281.18      53615.229      1492079.9    
    378500   2512.6664     -225074.35      0             -204288.27      53648.894      1492224.3    
    379000   2513.736      -225116.04      0             -204321.11      53342.353      1492368.7    
    379500   2505.1102     -225093.74      0             -204370.16      53285.943      1492513      
    380000   2488.0401     -225006.45      0             -204424.08      53963.826      1492657.3    
    380500   2501.7637     -225164.16      0             -204468.27      53221.289      1492801.6    
    381000   2497.5607     -225156.93      0             -204495.81      53309.829      1492945.7    
    381500   2488.5521     -225087.09      0             -204500.49      52938.321      1493089.8    
[...]
   3908500   2504.0449     -208713.7       0             -187998.94      7864.3611      2222260.6    
   3909000   2493.8934     -208713.83      0             -188083.05      7369.3084      2222335.7    
   3909500   2490          -208758.16      0             -188159.58      7602.3976      2222410.7    
   3910000   2481.0234     -208714.34      0             -188190.03      7613.0679      2222485.8    
   3910500   2486.1523     -208736.06      0             -188169.32      7841.2856      2222560.8    
   3911000   2497.52       -208777.97      0             -188117.18      7473.0897      2222635.8    
   3911500   2503.0854     -208787.34      0             -188080.52      7527.7914      2222710.7    
   3912000   2488.19       -208641.08      0             -188057.48      7467.9547      2222785.7    
   3912500   2493.3849     -208652.77      0             -188026.2       7752.0627      2222860.6    
   3913000   2503.868      -208703.77      0             -187990.47      7757.7435      2222935.6    
   3913500   2494.6191     -208586.99      0             -187950.2       7947.096       2223010.5    
   3914000   2499.8074     -208597.85      0             -187918.15      7707.9628      2223085.5    
   3914500   2501.6584     -208600.93      0             -187905.91      7585.0153      2223160.5    
   3915000   2497.6926     -208571.76      0             -187909.55      7383.234       2223235.4    
   3915500   2508.1008     -208682.64      0             -187934.33      7708.446       2223310.4    
   3916000   2501.5051     -208688.01      0             -187994.26      7359.7435      2223385.3    
   3916500   2486.135      -208639.22      0             -188072.61      7203.8517      2223460.3    
   3917000   2495.5482     -208768.45      0             -188123.98      7338.4935      2223535.2    
   3917500   2492.6455     -208755.4       0             -188134.94      7534.8836      2223610.1    
   3918000   2499.2974     -208790.33      0             -188114.85      7085.2648      2223685      
   3918500   2488.2975     -208634.72      0             -188050.23      7349.935       2223759.9    
   3919000   2498.6687     -208625.91      0             -187955.62      7349.8312      2223834.7    
   3919500   2512.8946     -208700.28      0             -187912.31      7875.0831      2223909.5    
   3920000   2513.1992     -208706.1       0             -187915.61      7831.3061      2223984.4    
   3920500   2504.3066     -208648.59      0             -187931.67      7533.2117      2224059.3    
   3921000   2504.8843     -208672.21      0             -187950.5       7480.4906      2224134.2    
   3921500   2498.2859     -208642.46      0             -187975.34      7546.4717      2224209.1    
   3922000   2500.3565     -208680.42      0             -187996.17      7165.7324      2224283.9    
   3922500   2498.6203     -208674.58      0             -188004.7       7726.8428      2224358.7    
   3923000   2493.5869     -208634.55      0             -188006.3       7288.2071      2224433.5    
   3923500   2493.4197     -208604.16      0             -187977.29      7503.9182      2224508.3    
   3924000   2500.9648     -208608.09      0             -187918.81      7629.5267      2224583.1    
   3924500   2515.4711     -208673.29      0             -187864         7726.267       2224657.9    
   3925000   2502.0976     -208523.33      0             -187824.67      7047.4705      2224732.6    
   3925500   2506.227      -208537.65      0             -187804.84      7440.0949      2224807.4    
   3926000   2518.9161     -208670.57      0             -187832.79      7944.2268      2224882.2    
   3926500   2511.8302     -208703.57      0             -187924.41      7517.4267      2224956.9    
   3927000   2483.8633     -208551.72      0             -188003.91      7252.8849      2225031.7    
   3927500   2507.1729     -208763.51      0             -188022.87      7429.877       2225106.4    
   3928000   2508.0598     -208770.95      0             -188022.97      7462.1128      2225181.2    
   3928500   2489.9868     -208615.29      0             -188016.83      7237.0737      2225255.9    
   3929000   2500.2116     -208680.01      0             -187996.96      7631.1089      2225330.6    
   3929500   2496.1881     -208616.25      0             -187966.48      7495.7305      2225405.2    
   3930000   2495.877      -208570.36      0             -187923.17      7586.9078      2225479.9    
   3930500   2506.3315     -208595.07      0             -187861.39      7431.3169      2225554.5    
   3931000   2501.1554     -208483.03      0             -187792.17      7650.1272      2225629.1    
   3931500   2517.4332     -208558.13      0             -187732.61      7518.759       2225703.8    
   3932000   2518.0202     -208542.66      0             -187712.28      7429.8901      2225778.4    
   3932500   2512.6977     -208537.53      0             -187751.19      7647.5988      2225853.1    
   3933000   2500.027      -208552.31      0             -187870.79      7576.537       2225927.7    
   3933500   2505.2189     -208677.76      0             -187953.28      7564.0178      2226002.3    
   3934000   2498.8247     -208656.57      0             -187984.99      7463.3224      2226076.9    
   3934500   2487.6231     -208581.63      0             -188002.72      7752.002       2226151.5    
   3935000   2503.3114     -208710.86      0             -188002.16      7275.2605      2226226.1    
   3935500   2492.6151     -208598.17      0             -187977.96      7303.0006      2226300.6    
   3936000   2493.0412     -208557.28      0             -187933.55      7532.0546      2226375.1    
   3936500   2506.6305     -208618.25      0             -187882.1       7216.4632      2226449.6    
   3937000   2500.1987     -208516.79      0             -187833.85      7727.8815      2226524.1    
   3937500   2505.6788     -208534.91      0             -187806.63      7583.5887      2226598.6    
   3938000   2506.8815     -208538.83      0             -187800.61      7533.3076      2226673.1    
   3938500   2506.8767     -208570.66      0             -187832.47      7356.0457      2226747.6    
   3939000   2503.5368     -208635.71      0             -187925.15      7263.8654      2226822      
   3939500   2499.7327     -208695.29      0             -188016.2       7692.1732      2226896.5    
   3940000   2487.9811     -208645.01      0             -188063.14      7326.5204      2226971      
   3940500   2494.9794     -208711.84      0             -188072.07      7391.2322      2227045.4    
   3941000   2490.6362     -208659.31      0             -188055.47      7398.0106      2227119.8    
   3941500   2484.9002     -208559.64      0             -188003.25      7327.3684      2227194.2    
   3942000   2506.5534     -208655.2       0             -187919.69      7598.1194      2227268.5    
   3942500   2515.1495     -208677.48      0             -187870.86      7550.324       2227342.8    
   3943000   2507.877      -208604.97      0             -187858.51      7261.0585      2227417.2    
   3943500   2494.0558     -208490.77      0             -187858.64      7465.2483      2227491.5    
   3944000   2510.819      -208635.77      0             -187864.97      7448.5972      2227565.8    
   3944500   2506.1642     -208623.2       0             -187890.91      7575.0292      2227640.1    
   3945000   2504.788      -208658.7       0             -187937.79      7457.8528      2227714.5    
   3945500   2487.0711     -208586.34      0             -188011.99      7382.0584      2227788.8    
   3946000   2488.4502     -208671.94      0             -188086.19      7478.6583      2227863.1    
   3946500   2493.3698     -208762.01      0             -188135.56      7336.1872      2227937.4    
   3947000   2490.1616     -208745.21      0             -188145.3       7251.5639      2228011.6    
   3947500   2494.1745     -208679.22      0             -188046.11      7605.6558      2228085.8    
   3948000   2494.9079     -208542.71      0             -187903.54      7394.9675      2228159.9    
   3948500   2506.4934     -208588.19      0             -187853.18      7714.4142      2228234.1    
   3949000   2510.5403     -208604.23      0             -187835.74      7296.0391      2228308.3    
   3949500   2508.2637     -208587.59      0             -187837.92      7362.7685      2228382.5    
   3950000   2499.0907     -208538.54      0             -187864.76      7656.5418      2228456.7    
   3950500   2498.7806     -208584.48      0             -187913.27      7176.0275      2228530.9    
   3951000   2489.8573     -208561.68      0             -187964.29      7216.5101      2228605.1    
   3951500   2496.9568     -208655.71      0             -187999.59      7233.6696      2228679.3    
   3952000   2490.9928     -208626.94      0             -188020.15      7233.5605      2228753.4    
   3952500   2496.4895     -208657.69      0             -188005.43      7279.1227      2228827.5    
   3953000   2500.0385     -208635.54      0             -187953.92      7248.9272      2228901.6    
   3953500   2505.0418     -208590.59      0             -187867.58      7457.3777      2228975.7    
   3954000   2503.1653     -208500.47      0             -187792.99      7720.9812      2229049.8    
   3954500   2502.8574     -208466.78      0             -187761.84      7182.4129      2229123.9    
   3955000   2503.8501     -208481.16      0             -187768.01      7209.6004      2229197.9    
   3955500   2494.8886     -208433.13      0             -187794.12      7353.0381      2229272      
   3956000   2500.6587     -208518.48      0             -187831.73      6823.1873      2229346.1    
   3956500   2504.46       -208589.15      0             -187870.96      7258.6879      2229420.1    
   3957000   2511.9203     -208674.37      0             -187894.46      7220.1026      2229494.2    
   3957500   2501.4914     -208606.31      0             -187912.67      7533.1304      2229568.2    
   3958000   2506.8149     -208666.88      0             -187929.21      7422.2403      2229642.2    
   3958500   2492.8388     -208560.97      0             -187938.91      6992.6681      2229716.3    
   3959000   2510.7676     -208709.27      0             -187938.89      7499.0373      2229790.3    
   3959500   2507.8519     -208684.63      0             -187938.38      7346.0794      2229864.3    
   3960000   2495.5013     -208599.04      0             -187954.95      7233.1382      2229938.3    
   3960500   2491.2165     -208582.65      0             -187974.01      7018.5518      2230012.3    
   3961000   2486.47       -208567.19      0             -187997.82      7160.4947      2230086.3    
   3961500   2494.2867     -208656.66      0             -188022.62      7277.5337      2230160.2    
   3962000   2488.4377     -208620.83      0             -188035.18      7239.2148      2230234.2    
   3962500   2496.5351     -208654.85      0             -188002.22      7145.8277      2230308.1    
   3963000   2495.623      -208577.85      0             -187932.76      7166.1396      2230382      
   3963500   2503.2076     -208571.9       0             -187864.06      7264.3192      2230455.8    
   3964000   2512.6187     -208609.2       0             -187823.52      7150.777       2230529.7    
   3964500   2503.1002     -208516.83      0             -187809.88      7254.8983      2230603.5    
   3965000   2509.3641     -208581.2       0             -187822.44      7492.8257      2230677.4    
   3965500   2507.4046     -208619.95      0             -187877.4       7017.4716      2230751.3    
   3966000   2495.9873     -208598.68      0             -187950.57      7235.7673      2230825.1    
   3966500   2497.8295     -208662.44      0             -187999.1       7235.7061      2230899      
   3967000   2490.9024     -208625.39      0             -188019.35      7421.341       2230972.8    
   3967500   2491.2317     -208624.7       0             -188015.94      7363.7966      2231046.6    
   3968000   2489.9427     -208568.25      0             -187970.15      7420.6856      2231120.4    
   3968500   2507.9603     -208596.91      0             -187849.76      7008.7864      2231194.1    
   3969000   2500.0001     -208460.94      0             -187779.64      7428.9378      2231267.9    
   3969500   2515.7005     -208566.23      0             -187755.05      7191.5848      2231341.6    
   3970000   2500.836      -208457.83      0             -187769.62      7185.4496      2231415.3    
   3970500   2501.5619     -208511.14      0             -187816.92      7417.4592      2231489.1    
   3971000   2499.2308     -208545.37      0             -187870.44      7186.1315      2231562.8    
   3971500   2493.528      -208540.02      0             -187912.26      7179.722       2231636.5    
   3972000   2496.1163     -208589.53      0             -187940.36      7645.3519      2231710.1    
   3972500   2495.1827     -208601.65      0             -187960.2       7355.3894      2231783.8    
   3973000   2495.7707     -208598         0             -187951.69      7348.9436      2231857.5    
   3973500   2503.9668     -208597.82      0             -187883.71      7688.5356      2231931.2    
   3974000   2508.7449     -208544.74      0             -187791.1       7223.5919      2232004.8    
   3974500   2520.6198     -208596.79      0             -187744.91      7116.7251      2232078.5    
   3975000   2515.2999     -208559         0             -187751.13      7003.9364      2232152.2    
   3975500   2503.6329     -208494.63      0             -187783.28      7249.2         2232225.8    
   3976000   2495.7197     -208478.51      0             -187832.62      7330.13        2232299.5    
   3976500   2493.5438     -208523.2       0             -187895.3       6922.0085      2232373.1    
   3977000   2492.8154     -208571.09      0             -187949.22      6975.7997      2232446.7    
   3977500   2492.1763     -208605.41      0             -187988.83      7295.6991      2232520.3    
   3978000   2491.1174     -208611.39      0             -188003.58      7307.4324      2232593.9    
   3978500   2492.7529     -208611.81      0             -187990.46      7236.4866      2232667.4    
   3979000   2496.912      -208576.26      0             -187920.5       7042.1425      2232740.9    
   3979500   2507.2225     -208574.65      0             -187833.6       7409.5085      2232814.4    
   3980000   2500.1249     -208453.76      0             -187771.43      7052.6562      2232887.9    
   3980500   2502.9434     -208431.47      0             -187725.82      7446.3555      2232961.3    
   3981000   2498.5222     -208393.88      0             -187724.81      7340.7333      2233034.7    
   3981500   2507.4503     -208506.96      0             -187764.03      7044.8149      2233108.2    
   3982000   2499.3195     -208510.2       0             -187834.53      7168.4246      2233181.6    
   3982500   2497.4        -208558.37      0             -187898.58      6856.6634      2233255      
   3983000   2502.9791     -208632.4       0             -187926.45      7476.2857      2233328.4    
   3983500   2496.3102     -208585.85      0             -187935.07      7168.7287      2233401.8    
   3984000   2494.454      -208561.18      0             -187925.76      6924.812       2233475.1    
   3984500   2496.9178     -208555.61      0             -187899.8       7307.9221      2233548.5    
   3985000   2505.2362     -208578.35      0             -187853.73      7657.5871      2233621.8    
   3985500   2500.6518     -208455.52      0             -187768.82      7396.7532      2233695.1    
   3986000   2518.7863     -208488.38      0             -187651.67      7302.9362      2233768.5    
   3986500   2509.6901     -208380.91      0             -187619.45      7444.4559      2233841.8    
   3987000   2517.1707     -208466.17      0             -187642.82      7437.4749      2233915.2    
   3987500   2507.538      -208440.73      0             -187697.07      7190.565       2233988.7    
   3988000   2513.5104     -208551.91      0             -187758.84      7326.519       2234062.1    
   3988500   2502.6518     -208518.74      0             -187815.5       7016.2322      2234135.6    
   3989000   2502.8112     -208559.09      0             -187854.53      6785.0247      2234209      
   3989500   2502.9007     -208584.85      0             -187879.56      7352.356       2234282.4    
   3990000   2500.379      -208576.26      0             -187891.83      7207.7444      2234355.8    
   3990500   2495.3993     -208536.85      0             -187893.61      7317.2859      2234429.2    
   3991000   2504.2733     -208591.08      0             -187874.43      7181.9867      2234502.6    
   3991500   2501.121      -208504.25      0             -187813.67      7030.6849      2234576      
   3992000   2503.2539     -208424.29      0             -187716.07      7095.1432      2234649.4    
   3992500   2510.979      -208426.99      0             -187654.87      7380.3777      2234722.8    
   3993000   2512.8505     -208435.92      0             -187648.32      7539.9248      2234796.2    
   3993500   2508.3455     -208437.01      0             -187686.67      7105.9656      2234869.6    
   3994000   2504.3415     -208462.38      0             -187745.16      7237.0206      2234943      
   3994500   2501.955      -208492.83      0             -187795.36      6784.7483      2235016.4    
   3995000   2496.0661     -208466.01      0             -187817.26      7374.3166      2235089.8    
   3995500   2498.6873     -208488.97      0             -187818.53      7112.1927      2235163.2    
   3996000   2500.5089     -208497.83      0             -187812.32      6992.7821      2235236.5    
   3996500   2501.142      -208499.42      0             -187808.68      7095.8165      2235309.9    
   3997000   2515.8783     -208624.16      0             -187811.5       7141.5518      2235383.3    
   3997500   2487.7485     -208421.46      0             -187841.51      7016.2319      2235456.6    
   3998000   2493.1418     -208529.4       0             -187904.84      6489.2028      2235529.9    
   3998500   2494.1102     -208607.31      0             -187974.74      6920.5381      2235603.2    
   3999000   2490.6324     -208620.38      0             -188016.57      7160.5669      2235676.4    
   3999500   2490.6519     -208608.82      0             -188004.86      6984.6911      2235749.6    
   4000000   2490.2888     -208540.13      0             -187939.17      6890.3505      2235822.8    
Loop time of 167247 on 4 procs for 4000000 steps with 64000 atoms

Performance: 2.066 ns/day, 11.614 hours/ns, 23.917 timesteps/s, 1.531 Matom-step/s
92.0% CPU use with 4 MPI tasks x no OpenMP threads

MPI task timing breakdown:
Section |  min time  |  avg time  |  max time  |%varavg| %total
---------------------------------------------------------------
Pair    | 1.0741e+05 | 1.292e+05  | 1.5089e+05 |5583.3 | 77.25
Neigh   | 7505.1     | 8479.1     | 9490.8     |1050.9 |  5.07
Comm    | 2417       | 25196      | 48032      |13298.7 | 15.07
Output  | 1095.8     | 1095.8     | 1095.9     |   0.1 |  0.66
Modify  | 2957.6     | 3024.7     | 3102.7     | 113.2 |  1.81
Other   |            | 252.8      |            |       |  0.15

Nlocal:          16000 ave       16079 max       15930 min
Histogram: 1 0 1 0 0 0 1 0 0 1
Nghost:        17370.2 ave       17408 max       17289 min
Histogram: 1 0 0 0 0 0 0 1 0 2
Neighs:     1.2701e+06 ave 1.27918e+06 max 1.25552e+06 min
Histogram: 1 0 0 0 0 1 0 0 0 2

Total # of neighbors = 5080405
Ave neighs/atom = 79.381328
Neighbor list builds = 168322
Dangerous builds = 0
Total wall time: 46:27:27
