LAMMPS (2 Aug 2023)
Lattice spacing in x,y,z = 5.5392 5.5392 5.5392
Created orthogonal box = (0 0 0) to (110.784 110.784 110.784)
  1 by 2 by 2 MPI processor grid
Created 64000 atoms
  using lattice units in orthogonal box = (0 0 0) to (110.784 110.784 110.784)
  create_atoms CPU = 0.004 seconds
32000 atoms in group Ba
32000 atoms in group O
WARNING: 23463 of 50000 force values in table Vash_11 are inconsistent with -dE/dr.
WARNING:  Should only be flagged at inflection points (../pair_table.cpp:466)
WARNING: 43814 of 50000 distance values in table 1e-06 with relative error
WARNING:  over Vash_11 to re-computed values (../pair_table.cpp:474)
WARNING: 23576 of 50000 force values in table Vash_12 are inconsistent with -dE/dr.
WARNING:  Should only be flagged at inflection points (../pair_table.cpp:466)
WARNING: 43814 of 50000 distance values in table 1e-06 with relative error
WARNING:  over Vash_12 to re-computed values (../pair_table.cpp:474)
WARNING: 23794 of 50000 force values in table Vash_22 are inconsistent with -dE/dr.
WARNING:  Should only be flagged at inflection points (../pair_table.cpp:466)
WARNING: 43814 of 50000 distance values in table 1e-06 with relative error
WARNING:  over Vash_22 to re-computed values (../pair_table.cpp:474)
Generated 0 of 1 mixed pair_coeff terms from geometric mixing rule
Neighbor list info ...
  update: every = 8 steps, delay = 0 steps, check = yes
  max neighbors/atom: 2000, page size: 100000
  master list distance cutoff = 11
  ghost atom cutoff = 11
  binsize = 5.5, bins = 21 21 21
  1 neighbor lists, perpetual/occasional/extra = 1 0 0
  (1) pair table, perpetual
      attributes: half, newton on
      pair build: half/bin/atomonly/newton
      stencil: half/bin/3d
      bin: standard
Setting up Verlet run ...
  Unit style    : metal
  Current step  : 0
  Time step     : 0.001
Per MPI rank memory allocation (min/avg/max) = 16.41 | 16.41 | 16.41 Mbytes
   Step          Temp          E_pair         E_mol          TotEng         Press          Volume    
         0   2300          -243821.04      0             -224794.24      14634.458      1359662.5    
       500   1205.8363     -234396.74      0             -224421.43      52849.416      1359664.3    
      1000   1263.2381     -234312.01      0             -223861.85      53682.216      1359669.6    
      1500   1295.9904     -233940.32      0             -223219.22      55734.502      1359678.7    
      2000   1349.1956     -233676.5       0             -222515.25      57203.93       1359691.5    
      2500   1391.7493     -233274.54      0             -221761.27      59263.43       1359708.2    
      3000   1447.8204     -232941.47      0             -220964.34      61086.217      1359729      
      3500   1497.0411     -232514.61      0             -220130.3       63324.47       1359753.9    
      4000   1555.7031     -232133.58      0             -219263.99      65132.255      1359783.2    
      4500   1616.8685     -231746.66      0             -218371.08      67395.879      1359816.9    
      5000   1672.5113     -231291.95      0             -217456.07      69828.369      1359855.2    
      5500   1731.4464     -230848.46      0             -216525.03      71992.755      1359898.3    
      6000   1801.5793     -230487.8       0             -215584.2       73971.751      1359946.2    
      6500   1863.6752     -230057.46      0             -214640.17      76097.818      1359999.2    
      7000   1920.4274     -229588.11      0             -213701.33      78693.194      1360057.4    
      7500   1972.952      -229096.77      0             -212775.49      80915.911      1360120.9    
      8000   2045.4804     -228793.76      0             -211872.48      82371.272      1360190      
      8500   2098.3169     -228361.51      0             -211003.14      84773.762      1360264.6    
      9000   2147.4666     -227945.06      0             -210180.1       86837.621      1360345.1    
      9500   2204.5512     -227653.99      0             -209416.8       88188.477      1360431.4    
     10000   2243.573      -227290.88      0             -208730.88      89885.1        1360523.6    
     10500   2287.6869     -227065.8       0             -208140.86      90981.22       1360622      
     11000   2316.0982     -226833.73      0             -207673.76      92355.83       1360726.5    
     11500   2340.0447     -226714.1       0             -207356.03      92922.876      1360837.3    
     12000   2349.7068     -226659.58      0             -207221.58      92976.571      1360954.2    
     12500   2342.8366     -226674.05      0             -207292.88      92765.437      1361077.4    
     13000   2325.6439     -226781.01      0             -207542.08      92088.698      1361206.8    
     13500   2301.1414     -226914.58      0             -207878.34      91636.388      1361342.3    
     14000   2281.5947     -227076.16      0             -208201.62      90902.165      1361483.9    
     14500   2275.101      -227260.64      0             -208439.82      89901.863      1361631.4    
     15000   2264.3056     -227280.16      0             -208548.65      89529.674      1361784.7    
     15500   2262.7904     -227227.59      0             -208508.61      89917.196      1361943.8    
     16000   2274.492      -227149.15      0             -208333.37      90173.807      1362108.6    
     16500   2297.8093     -227086.6       0             -208077.93      90635.469      1362279.1    
     17000   2306.9255     -226903.78      0             -207819.69      91235.328      1362455.2    
     17500   2328.4589     -226882.98      0             -207620.76      91378.858      1362636.9    
     18000   2334.768      -226841.22      0             -207526.81      91443.519      1362824.1    
     18500   2319.1183     -226743.72      0             -207558.77      91505.455      1363016.7    
     19000   2308.947      -226805.77      0             -207704.96      91112.641      1363214.7    
     19500   2296.1585     -226916.88      0             -207921.86      90719.311      1363417.9    
     20000   2299.4297     -227168.15      0             -208146.07      89702.021      1363626.1    
     20500   2281.2933     -227194.35      0             -208322.3       89207.632      1363839.1    
     21000   2268.4737     -227174.14      0             -208408.15      88955.012      1364056.8    
     21500   2278.7584     -227235.54      0             -208384.47      88719.597      1364279      
     22000   2284.5242     -227156.85      0             -208258.08      89124.401      1364505.6    
     22500   2283.6979     -226958.98      0             -208067.04      89882.616      1364736.3    
     23000   2303.8879     -226926.47      0             -207867.51      89864.805      1364971.1    
     23500   2326.6413     -226959.45      0             -207712.27      89674.145      1365209.8    
     24000   2324.6736     -226870.79      0             -207639.88      90131.893      1365452.2    
     24500   2318.9451     -226850.69      0             -207667.17      90146.948      1365698.2    
     25000   2304.9216     -226854.77      0             -207787.26      89872.331      1365947.4    
     25500   2297.3984     -226968.83      0             -207963.55      89193.337      1366199.7    
     26000   2292.7446     -227113.32      0             -208146.54      88557.058      1366454.9    
     26500   2278.0587     -227134.12      0             -208288.83      88626.094      1366712.6    
     27000   2277.9168     -227200.43      0             -208356.32      88105.682      1366972.7    
     27500   2277.834      -227176.43      0             -208333.01      87786.162      1367234.8    
     28000   2287.2557     -227146.99      0             -208225.62      87701.743      1367498.7    
     28500   2295.818      -227057.56      0             -208065.36      88092.968      1367764.3    
     29000   2305.7937     -226973.25      0             -207898.53      88466.52       1368031.4    
     29500   2316.8413     -226934.15      0             -207768.03      88449.706      1368299.6    
     30000   2320.5127     -226903.37      0             -207706.89      88563.572      1368568.8    
     30500   2315.7962     -226889.11      0             -207731.64      88503.83       1368838.9    
     31000   2315.3739     -226990.29      0             -207836.32      87933.222      1369109.5    
     31500   2303.1447     -227042.97      0             -207990.16      87585.099      1369380.4    
     32000   2291.8977     -227108.65      0             -208148.88      86964.925      1369651.5    
     32500   2296.841      -227273.17      0             -208272.5       86502.449      1369922.4    
     33000   2274.5099     -227146.91      0             -208330.98      86733.142      1370193      
     33500   2282.8798     -227194.35      0             -208309.18      86696.263      1370463.1    
     34000   2286.1397     -227126.46      0             -208214.32      86468.918      1370732.5    
     34500   2302.5308     -227120.84      0             -208073.11      86711.845      1371001.1    
     35000   2304.898      -226991.56      0             -207924.25      87123.12       1371268.7    
     35500   2309.4122     -226912.76      0             -207808.1       87415.152      1371535.3    
     36000   2316.3983     -226916.41      0             -207753.95      87159.663      1371800.7    
     36500   2316.2462     -226936.4       0             -207775.21      86959.831      1372064.8    
     37000   2306.8486     -226949.47      0             -207866.01      87062.73       1372327.6    
     37500   2300.2901     -227031.07      0             -208001.87      86396.365      1372589      
     38000   2292.9694     -227114.04      0             -208145.4       85907.232      1372848.8    
     38500   2280.653      -227125.66      0             -208258.91      85818.77       1373107      
     39000   2291.6543     -227270.86      0             -208313.11      85099.343      1373363.5    
     39500   2278.1374     -227141.61      0             -208295.68      85330.448      1373618.3    
     40000   2289.0495     -227147.04      0             -208210.83      85111.113      1373871.4    
     40500   2293.1171     -227052.88      0             -208083.02      85681.545      1374122.7    
     41000   2303.9491     -227007.6       0             -207948.14      85437.225      1374372.4    
     41500   2314.9496     -226992.81      0             -207842.35      85744.597      1374620.4    
     42000   2322.2411     -227004.69      0             -207793.9       85611.705      1374866.8    
     42500   2311.7689     -226941.03      0             -207816.88      85884.058      1375111.6    
     43000   2309.8031     -227010.65      0             -207902.76      85436.392      1375354.9    
     43500   2304.8732     -227095.9       0             -208028.79      84997.611      1375596.7    
     44000   2301.6628     -227199.79      0             -208159.24      84416.177      1375837      
     44500   2288.7966     -227195.08      0             -208260.96      84146.168      1376075.8    
     45000   2285.9407     -227216.59      0             -208306.1       84063.623      1376313.3    
     45500   2282.9747     -227170.88      0             -208284.92      84101.92       1376549.5    
     46000   2291.2268     -227158.4       0             -208204.18      84230.947      1376784.5    
     46500   2292.6864     -227052.76      0             -208086.47      84548.495      1377018.3    
     47000   2299.0426     -226982.7       0             -207963.82      85024.982      1377251.1    
     47500   2301.5259     -226908.95      0             -207869.53      84794.949      1377482.9    
     48000   2311.9858     -226953.32      0             -207827.37      84657.409      1377713.9    
     48500   2323.7365     -227072.65      0             -207849.5       84260.26       1377944.1    
     49000   2306.1865     -227004.65      0             -207926.67      84290.451      1378173.6    
     49500   2301.1906     -227076.32      0             -208039.67      83878.15       1378402.5    
     50000   2283.7325     -227048.9       0             -208156.68      83576.417      1378630.8    
     50500   2293.451      -227219.64      0             -208247.02      82829.896      1378858.6    
     51000   2289.0462     -227222.85      0             -208286.67      82856.269      1379086      
     51500   2285.1618     -227170.16      0             -208266.11      83025.084      1379313      
     52000   2293.8013     -227165.85      0             -208190.33      82873.119      1379539.8    
     52500   2294.6162     -227065.35      0             -208083.09      83252.939      1379766.3    
     53000   2305.3137     -227045.01      0             -207974.25      83338.091      1379992.6    
     53500   2305.716      -226965.75      0             -207891.67      83675.964      1380218.9    
     54000   2316.0521     -227017.38      0             -207857.79      83397.102      1380445.3    
     54500   2308.8307     -226981.15      0             -207881.3       83239.165      1380671.6    
     55000   2305.5065     -227026.92      0             -207954.57      82856.852      1380898.2    
     55500   2299.1642     -227079.55      0             -208059.67      82658.8        1381124.8    
     56000   2295.4263     -227155.59      0             -208166.63      82524.09       1381351.6    
     56500   2280.2334     -227109.31      0             -208246.03      82427.058      1381578.7    
     57000   2287.8105     -227205.69      0             -208279.73      81912.773      1381805.9    
     57500   2291.3955     -227213.53      0             -208257.92      81848.679      1382033.4    
     58000   2295.8206     -227179.19      0             -208186.97      81628.222      1382261.1    
     58500   2299.5581     -227108.58      0             -208085.44      81767.326      1382489.2    
     59000   2307.0785     -227068.08      0             -207982.73      82016.759      1382717.6    
     59500   2309.2784     -227006.87      0             -207903.31      82332.674      1382946.4    
     60000   2311.613      -226991.17      0             -207868.3       82053.53       1383175.6    
     60500   2308.1425     -226983.95      0             -207889.79      82125.372      1383405.2    
     61000   2299.759      -226986.91      0             -207962.11      81867.06       1383635.2    
     61500   2298.106      -227075.24      0             -208064.11      81484.882      1383865.7    
     62000   2296.8238     -227167.01      0             -208166.49      80881.065      1384096.5    
     62500   2280.6611     -227109.24      0             -208242.42      80873.981      1384327.6    
     63000   2287.41       -227195.64      0             -208273         80388.332      1384559.1    
     63500   2289.0069     -227188.02      0             -208252.17      80833.562      1384791      
     64000   2299.2767     -227205.71      0             -208184.89      80443.605      1385023.1    
     64500   2298.7805     -227106.36      0             -208089.65      80845.53       1385255.6    
     65000   2299.0399     -227011.2       0             -207992.34      81293.258      1385488.4    
     65500   2313.307      -227055.92      0             -207919.04      81044.769      1385721.5    
     66000   2310.5326     -227003.39      0             -207889.46      81103.607      1385954.9    
     66500   2317.6528     -227084.15      0             -207911.32      80607.782      1386188.6    
     67000   2317.2064     -227148.78      0             -207979.65      80474.965      1386422.6    
     67500   2296.2903     -227071.22      0             -208075.12      80995.463      1386656.7    
     68000   2293.7306     -227146.09      0             -208171.16      80130.916      1386891      
     68500   2291.7356     -227201.17      0             -208242.74      79828.814      1387125.4    
     69000   2283.1993     -227157.84      0             -208270.02      79785.877      1387359.9    
     69500   2285.5211     -227153.65      0             -208246.63      79678.44       1387594.4    
     70000   2288.8509     -227112.82      0             -208178.25      79717.476      1387829      
     70500   2305.8116     -227159.22      0             -208084.35      79485.425      1388063.5    
     71000   2312.3574     -227119.81      0             -207990.79      79674.613      1388298      
     71500   2310.6986     -227036.58      0             -207921.28      79853.213      1388532.5    
     72000   2317.197      -227065.24      0             -207896.18      79664.891      1388766.9    
     72500   2310.5511     -227036.98      0             -207922.9       79718.039      1389001.1    
     73000   2306.049      -227069.19      0             -207992.36      79671.432      1389235.3    
     73500   2298.5336     -227100.15      0             -208085.48      79109.742      1389469.2    
     74000   2293.8039     -227151.97      0             -208176.43      79115.136      1389702.9    
     74500   2285.7534     -227149.36      0             -208240.42      78717.925      1389936.3    
     75000   2289.631      -227204.13      0             -208263.11      78602.244      1390169.4    
     75500   2297.668      -227243.83      0             -208236.33      78035.144      1390402.1    
     76000   2294.859      -227153.41      0             -208169.15      78660.903      1390634.4    
     76500   2303.0592     -227129.65      0             -208077.55      78590.491      1390866.3    
     77000   2310.6341     -227103.48      0             -207988.71      78720.389      1391097.8    
     77500   2308.342      -227021.78      0             -207925.98      79237.162      1391328.8    
     78000   2315.9136     -227063.95      0             -207905.51      78790.898      1391559.4    
     78500   2306.0851     -227009.43      0             -207932.3       78884.018      1391789.4    
     79000   2307.3871     -227086.81      0             -207998.9       78530.501      1392019      
     79500   2286.8162     -227005.79      0             -208088.06      78627.99       1392248      
     80000   2290.0665     -227119.47      0             -208174.85      78028.32       1392476.5    
     80500   2293.4297     -227208.25      0             -208235.8       77487.312      1392704.3    
     81000   2284.1628     -227152.4       0             -208256.62      77594.011      1392931.4    
     81500   2283.6475     -227121.81      0             -208230.29      77462.833      1393157.9    
     82000   2300.5685     -227196.54      0             -208165.04      77634.571      1393383.7    
     82500   2301.5119     -227118.55      0             -208079.25      77796.377      1393608.8    
     83000   2299.8414     -227020.77      0             -207995.28      77848.879      1393833.3    
     83500   2302.8273     -226984.97      0             -207934.78      77821.57       1394057      
     84000   2307.2394     -227002.14      0             -207915.46      77729.681      1394280      
     84500   2301.5607     -226978.96      0             -207939.25      77775.494      1394502.4    
     85000   2304.229      -227063.48      0             -208001.7       77514.744      1394724      
     85500   2294.9724     -227069.9       0             -208084.69      77202.422      1394944.9    
     86000   2291.881      -227125.26      0             -208165.63      76751.362      1395165.1    
     86500   2288.5075     -227156.61      0             -208224.88      76780.271      1395384.5    
     87000   2292.6557     -227212.94      0             -208246.9       76268.266      1395603.2    
     87500   2286.7796     -227141.14      0             -208223.71      76508.063      1395821      
     88000   2293.5182     -227134.83      0             -208161.65      76374.235      1396038.1    
     88500   2296.291      -227074.33      0             -208078.22      76901.911      1396254.4    
     89000   2301.876      -227037.03      0             -207994.71      76686.507      1396470      
     89500   2309.7012     -227040.15      0             -207933.1       76857.091      1396684.9    
     90000   2311.8626     -227037.78      0             -207912.85      76663.638      1396899      
     90500   2303.0901     -226988.17      0             -207935.81      76756.849      1397112.5    
     91000   2312.2559     -227125.1       0             -207996.92      75938.805      1397325.2    
     91500   2299.8257     -227107.57      0             -208082.22      75928.033      1397537.2    
     92000   2300.0447     -227194.2       0             -208167.03      75757.269      1397748.5    
     92500   2292.5367     -227191.3       0             -208226.24      75565.538      1397959.1    
     93000   2292.4523     -227209.4       0             -208245.04      75325.438      1398168.9    
     93500   2290.191      -227163.17      0             -208217.52      75246.089      1398378.1    
     94000   2288.1944     -227081.45      0             -208152.32      75978.15       1398586.5    
     94500   2298.6994     -227084.32      0             -208068.28      75702.979      1398794.2    
     95000   2318.0688     -227163.34      0             -207987.07      75577.582      1399001.3    
     95500   2303.4822     -226988.42      0             -207932.82      75920.232      1399207.8    
     96000   2315.3439     -227070.91      0             -207917.18      75749.626      1399413.6    
     96500   2305.2942     -227017.03      0             -207946.44      75710.658      1399618.8    
     97000   2302.5394     -227058.38      0             -208010.58      75248.707      1399823.5    
     97500   2288.8929     -227027.62      0             -208092.71      75560.742      1400027.5    
     98000   2288.3521     -227101.28      0             -208170.84      75017.804      1400230.9    
     98500   2290.8843     -227173.04      0             -208221.66      74409.512      1400433.8    
     99000   2289.7262     -227173.87      0             -208232.06      74670.059      1400636      
     99500   2290.9947     -227153.09      0             -208200.79      74494.231      1400837.7    
    100000   2294.715      -227118.33      0             -208135.25      74843.068      1401038.8    
    100500   2296.864      -227054.81      0             -208053.96      74820.316      1401239.3    
    101000   2300.6384     -227012.34      0             -207980.27      75305.516      1401439.3    
    101500   2305.2581     -227001.48      0             -207931.19      75022.618      1401638.9    
    102000   2304.9727     -226989.77      0             -207921.84      74982.052      1401837.9    
    102500   2299.9195     -226981.71      0             -207955.58      75061.451      1402036.6    
    103000   2303.3504     -227075.48      0             -208020.96      74436.106      1402234.7    
    103500   2301.2336     -227136.82      0             -208099.82      74149.554      1402432.4    
    104000   2294.3303     -227151.99      0             -208172.1       74195.373      1402629.6    
    104500   2288.983      -227151.99      0             -208216.33      73767.527      1402826.4    
    105000   2291.2292     -227175.99      0             -208221.75      73254.274      1403022.7    
    105500   2302.1453     -227230.06      0             -208185.51      73609.584      1403218.6    
    106000   2292.7295     -227085.26      0             -208118.61      74080.901      1403414.1    
    106500   2309.1824     -227139.88      0             -208037.12      73749.354      1403609.2    
    107000   2301.3229     -227001.6       0             -207963.86      74418.578      1403803.8    
    107500   2314.7993     -227067.41      0             -207918.18      74159.034      1403998.2    
    108000   2313.2093     -227049.75      0             -207913.68      74217.004      1404192.1    
    108500   2301.5168     -226990.43      0             -207951.09      74129.925      1404385.8    
    109000   2298.4066     -227033.53      0             -208019.92      73746.177      1404579.1    
    109500   2293.5825     -227074.21      0             -208100.5       73739.933      1404772.1    
    110000   2290.347      -227119.17      0             -208172.23      73341.87       1404964.8    
    110500   2284.9436     -227116.41      0             -208214.17      73034.992      1405157.1    
    111000   2293.5564     -227190.7       0             -208217.21      72933.122      1405349.1    
    111500   2294.6171     -227162.31      0             -208180.04      72804.249      1405540.7    
    112000   2286.4452     -227024.06      0             -208109.4       73346.94       1405732.1    
    112500   2307.7275     -227119.77      0             -208029.05      72856.455      1405923.1    
    113000   2309.6739     -227066.43      0             -207959.61      73164.975      1406113.8    
    113500   2313.1586     -227056.29      0             -207920.64      73140.799      1406304.3    
    114000   2311.5611     -227043.82      0             -207921.39      73152.501      1406494.6    
    114500   2307.0535     -227045.5       0             -207960.36      72909.534      1406684.6    
    115000   2298.6634     -227043.58      0             -208027.84      72880.518      1406874.4    
    115500   2292.1909     -227066.47      0             -208104.27      72469.762      1407063.9    
    116000   2286.1261     -227081.89      0             -208169.87      72468.452      1407253.2    
    116500   2295.7599     -227198.25      0             -208206.53      71776.717      1407442.2    
    117000   2296.2102     -227201.59      0             -208206.15      71976.588      1407630.9    
    117500   2296.3685     -227163.78      0             -208167.02      72079.338      1407819.4    
    118000   2287.6644     -227024.5       0             -208099.75      72241.498      1408007.6    
    118500   2305.1887     -227091.29      0             -208021.57      72093.621      1408195.6    
    119000   2308.6412     -227053.58      0             -207955.3       72269.157      1408383.4    
    119500   2313.2923     -227054.51      0             -207917.75      72168.571      1408571      
    120000   2301.5734     -226959.21      0             -207919.4       72415.742      1408758.5    
    120500   2302.2181     -227003.33      0             -207958.19      72180.068      1408945.7    
    121000   2305.1544     -227092.77      0             -208023.33      71999.23       1409132.7    
    121500   2294.2221     -227075.11      0             -208096.11      71611.589      1409319.6    
    122000   2295.9022     -227149.65      0             -208156.75      71409.171      1409506.2    
    122500   2294.3389     -227169.4       0             -208189.44      71065.38       1409692.7    
    123000   2289.8487     -227129.44      0             -208186.62      71372.886      1409878.9    
    123500   2303.9341     -227206.71      0             -208147.37      71196.407      1410064.9    
    124000   2309.4472     -227188.78      0             -208083.83      71223.137      1410250.7    
    124500   2299.2381     -227034.81      0             -208014.31      71418.885      1410436.3    
    125000   2305.1812     -227026.08      0             -207956.42      71625.854      1410621.7    
    125500   2308.8799     -227026.07      0             -207925.81      71557.866      1410807      
    126000   2303.4222     -226985.12      0             -207930.02      71722.999      1410992.1    
    126500   2309.9112     -227076.75      0             -207967.96      71235.901      1411177.1    
    127000   2294.8242     -227013.92      0             -208029.94      71226.613      1411361.9    
    127500   2296.3161     -227093.4       0             -208097.08      71040.949      1411546.5    
    128000   2299.5788     -227175.8       0             -208152.49      70573.397      1411731      
    128500   2296.7507     -227181.81      0             -208181.89      70456.642      1411915.2    
    129000   2298.3049     -227188.21      0             -208175.43      70410.421      1412099.3    
    129500   2298.2164     -227148.15      0             -208136.11      70366.758      1412283.2    
    130000   2296.4017     -227067.73      0             -208070.7       70736.928      1412466.9    
    130500   2301.243      -227035.26      0             -207998.18      70636.49       1412650.4    
    131000   2306.0276     -227014.71      0             -207938.05      70721.822      1412833.8    
    131500   2312.9437     -227040.21      0             -207906.34      70642.239      1413017.1    
    132000   2301.7946     -226952.28      0             -207910.64      70997.573      1413200.2    
    132500   2299.8381     -226976.04      0             -207950.58      70741.352      1413383.1    
    133000   2302.5994     -227062.59      0             -208014.29      70343.192      1413566      
    133500   2294.3527     -227067.33      0             -208087.25      70415.809      1413748.7    
    134000   2294.4108     -227130.19      0             -208149.63      69649.556      1413931.2    
    134500   2295.139      -227170.09      0             -208183.5       69771.289      1414113.5    
    135000   2295.5664     -227169.68      0             -208179.56      69510.051      1414295.7    
    135500   2297.7232     -227146.01      0             -208138.05      69644.647      1414477.7    
    136000   2300.4697     -227101.14      0             -208070.46      69695.976      1414659.5    
    136500   2307.3231     -227083.61      0             -207996.23      69757.027      1414841.1    
    137000   2309.6658     -227039.18      0             -207932.42      69789.411      1415022.7    
    137500   2307.6085     -226987.18      0             -207897.44      69944.977      1415204      
    138000   2307.9792     -226992.44      0             -207899.63      69773.691      1415385.3    
    138500   2311.5477     -227061.38      0             -207939.06      69562.523      1415566.4    
    139000   2304.6763     -227068.15      0             -208002.67      69655.456      1415747.4    
    139500   2292.3592     -227037.42      0             -208073.83      69271.766      1415928.2    
    140000   2286.4895     -227048.22      0             -208133.19      69265.365      1416108.9    
    140500   2298.1713     -227177.07      0             -208165.41      68571.837      1416289.4    
    141000   2291.5438     -227117.16      0             -208160.32      68693.177      1416469.7    
    141500   2286.3824     -227033.74      0             -208119.59      69297.508      1416649.9    
    142000   2298.0903     -227065.87      0             -208054.88      69166.783      1416829.9    
    142500   2309.4163     -227088.28      0             -207983.59      69084.657      1417009.8    
    143000   2306.8349     -227009.78      0             -207926.45      69208.875      1417189.5    
    143500   2314.1988     -227041.7       0             -207897.44      69242.986      1417369.1    
    144000   2299.8244     -226930.07      0             -207904.72      69376.58       1417548.6    
    144500   2312.5059     -227075.52      0             -207945.27      68828.506      1417728      
    145000   2306.4629     -227088.98      0             -208008.72      68844.016      1417907.2    
    145500   2291.2155     -227031.46      0             -208077.33      68978.628      1418086.3    
    146000   2286.8455     -227050.43      0             -208132.45      68778.096      1418265.3    
    146500   2276.1233     -226988.5       0             -208159.23      68585.168      1418444.1    
    147000   2295.1427     -227135.53      0             -208148.92      67892.055      1418622.7    
    147500   2295.4659     -227094.32      0             -208105.04      68236.439      1418801.2    
    148000   2296.7818     -227038.32      0             -208038.14      68498.949      1418979.5    
    148500   2308.6236     -227064.05      0             -207965.91      68276.427      1419157.7    
    149000   2305.2922     -226979         0             -207908.43      68951.841      1419335.8    
    149500   2295.9872     -226874.69      0             -207881.09      68728.539      1419513.7    
    150000   2305.91       -226965.32      0             -207889.64      68389.72       1419691.5    
    150500   2310.618      -227047.26      0             -207932.62      68083.559      1419869.2    
    151000   2304.2612     -227059.97      0             -207997.92      68108.84       1420046.8    
    151500   2299.5159     -227090.74      0             -208067.95      67714.839      1420224.2    
    152000   2302.9368     -227172.99      0             -208121.9       67431.427      1420401.5    
    152500   2290.3935     -227095.1       0             -208147.77      67677.094      1420578.6    
    153000   2294.9893     -227123.85      0             -208138.51      67236.673      1420755.6    
    153500   2292.076      -227055.82      0             -208094.57      67659.689      1420932.4    
    154000   2303.7199     -227086.12      0             -208028.55      67703.498      1421109.1    
    154500   2309.2499     -227060.93      0             -207957.61      67825.236      1421285.6    
    155000   2301.9205     -226943.31      0             -207900.63      68119.411      1421462      
    155500   2304.5306     -226938.33      0             -207874.05      68157.061      1421638.3    
    156000   2309.6133     -226989.64      0             -207883.32      67947.58       1421814.5    
    156500   2299.1625     -226944.47      0             -207924.6       67673.487      1421990.6    
    157000   2304.8489     -227054.28      0             -207987.37      67456.996      1422166.5    
    157500   2302.1167     -227100.09      0             -208055.78      67000.682      1422342.3    
    158000   2302.5024     -227158.96      0             -208111.46      66594.143      1422518      
    158500   2282.1769     -227015.99      0             -208136.63      67270.1        1422693.5    
    159000   2297.7811     -227133.06      0             -208124.62      66826.094      1422868.9    
    159500   2296.1712     -227074.36      0             -208079.23      66903.939      1423044.1    
    160000   2302.0476     -227057.25      0             -208013.51      67159.016      1423219.2    
    160500   2295.0804     -226929.81      0             -207943.71      67469.996      1423394.2    
    161000   2303.5872     -226944.71      0             -207888.24      67088.68       1423569.1    
    161500   2313.0304     -226995.84      0             -207861.25      66843.252      1423743.8    
    162000   2309.6954     -226977.39      0             -207870.39      66960.518      1423918.4    
    162500   2308.198      -227006.44      0             -207911.83      66556.773      1424093      
    163000   2297.7328     -226981.63      0             -207973.59      66679.385      1424267.4    
    163500   2297.2064     -227043.13      0             -208039.44      66311.801      1424441.7    
    164000   2305.2322     -227161.92      0             -208091.84      65715.064      1424615.9    
    164500   2291.1739     -227071.01      0             -208117.23      66043.846      1424789.9    
    165000   2293.4444     -227081.51      0             -208108.94      66072.389      1424963.8    
    165500   2296.1248     -227063.8       0             -208069.06      66028.901      1425137.6    
    166000   2294.2268     -226986.91      0             -208007.88      66678.116      1425311.2    
    166500   2302.9494     -226993.53      0             -207942.33      66437.859      1425484.7    
    167000   2307.8513     -226981.08      0             -207889.33      66610.356      1425658.1    
    167500   2309.3436     -226966.5       0             -207862.41      66431.971      1425831.3    
    168000   2309.5623     -226974.77      0             -207868.87      66184.908      1426004.5    
    168500   2298.892      -226924.13      0             -207906.5       66318.153      1426177.6    
    169000   2306.0605     -227041.06      0             -207964.13      65828.16       1426350.6    
    169500   2310.0957     -227136.73      0             -208026.41      65405.469      1426523.4    
    170000   2297.0006     -227079.44      0             -208077.46      65415.348      1426696.2    
    170500   2290.5832     -227051.59      0             -208102.69      65353.709      1426868.8    
    171000   2295.1304     -227080.95      0             -208094.43      65458.526      1427041.2    
    171500   2294.9654     -227039.96      0             -208054.81      65600.033      1427213.6    
    172000   2290.8909     -226945.55      0             -207994.11      65708.363      1427385.8    
    172500   2301.3855     -226967.12      0             -207928.86      65709.846      1427557.9    
    173000   2316.0194     -227036.89      0             -207877.57      65543.016      1427729.9    
    173500   2304.6541     -226918.85      0             -207853.55      65880.685      1427901.8    
    174000   2317.2412     -227029.41      0             -207859.98      65368.21       1428073.6    
    174500   2307.2203     -226983.09      0             -207896.56      65693.29       1428245.3    
    175000   2301.98       -226996.44      0             -207953.27      65268.862      1428416.9    
    175500   2300.5171     -227044.71      0             -208013.64      65180.856      1428588.4    
    176000   2282.4912     -226943.84      0             -208061.89      65218.2        1428759.7    
    176500   2288.9553     -227020.96      0             -208085.53      65018.174      1428931      
    177000   2300.851      -227111.66      0             -208077.82      64418.195      1429102.1    
    177500   2296.0036     -227034.18      0             -208040.44      64854.972      1429273.1    
    178000   2299.9433     -227009.09      0             -207982.76      64996.171      1429443.9    
    178500   2300.3505     -226949.09      0             -207919.39      65037.866      1429614.7    
    179000   2301.5858     -226909.24      0             -207869.33      65288.66       1429785.4    
    179500   2301.6577     -226886.36      0             -207845.85      65237.315      1429955.9    
    180000   2298.2274     -226866.72      0             -207854.58      65194.513      1430126.4    
    180500   2311.4846     -227012.92      0             -207891.11      64893.674      1430296.8    
    181000   2301.092      -226983.35      0             -207947.52      64678.216      1430467.1    
    181500   2298.5543     -227021.28      0             -208006.44      64450.904      1430637.3    
    182000   2290.7073     -227003.37      0             -208053.45      64594.173      1430807.3    
    182500   2285.8972     -226984.1       0             -208073.97      64405.114      1430977.3    
    183000   2290.5654     -227009.87      0             -208061.12      63993.019      1431147.1    
    183500   2291.7836     -226979.27      0             -208020.45      64191.553      1431316.8    
    184000   2303.5268     -227017.19      0             -207961.22      64096.332      1431486.4    
    184500   2304.0758     -226960.69      0             -207900.18      64320.372      1431655.9    
    185000   2301.1114     -226889.7       0             -207853.71      64642.962      1431825.2    
    185500   2304.6881     -226898.61      0             -207833.04      64604.76       1431994.5    
    186000   2303.0183     -226894.72      0             -207842.95      64463.639      1432163.7    
    186500   2308.7617     -226980.53      0             -207881.26      64083.407      1432332.8    
    187000   2307.4652     -227024.29      0             -207935.73      63955.905      1432501.8    
    187500   2291.3192     -226946.28      0             -207991.3       63951.18       1432670.8    
    188000   2291.9646     -226993.11      0             -208032.79      63715.427      1432839.6    
    188500   2293.6784     -227025.36      0             -208050.86      63543.972      1433008.3    
    189000   2300.6566     -227071.14      0             -208038.92      63331.659      1433176.8    
    189500   2290.7143     -226950.57      0             -208000.59      63730.921      1433345.3    
    190000   2300.0667     -226972.46      0             -207945.11      63749.542      1433513.6    
    190500   2298.9424     -226905.42      0             -207887.37      63752.93       1433681.9    
    191000   2307.7697     -226934.88      0             -207843.81      63714.433      1433850      
    191500   2299.5129     -226846.21      0             -207823.45      64209.204      1434018.1    
    192000   2311.7225     -226956.5       0             -207832.73      63451.825      1434186.1    
    192500   2315.3104     -227020.9       0             -207867.45      63462.333      1434353.9    
    193000   2300.915      -226955.32      0             -207920.96      63406.378      1434521.7    
    193500   2301.1544     -227013.95      0             -207977.61      63371.082      1434689.5    
    194000   2292.6367     -226988.02      0             -208022.14      63146.085      1434857.1    
    194500   2290.5194     -226989.89      0             -208041.53      63266.63       1435024.6    
    195000   2286.5003     -226946.51      0             -208031.4       63335.719      1435191.9    
    195500   2298.8792     -227011.34      0             -207993.81      62977.926      1435359.2    
    196000   2295.4308     -226927.02      0             -207938.02      63104.293      1435526.4    
    196500   2307.5262     -226966.69      0             -207877.63      63114.184      1435693.4    
    197000   2295.9107     -226825.02      0             -207832.06      63476.021      1435860.4    
    197500   2309.5792     -226917.56      0             -207811.52      62994.827      1436027.3    
    198000   2313.8523     -226962.94      0             -207821.55      62828.581      1436194.2    
    198500   2305.3201     -226927.65      0             -207856.84      62964.277      1436360.9    
    199000   2299.5086     -226931.11      0             -207908.38      62761.465      1436527.6    
    199500   2302.437      -227009.69      0             -207962.73      62500.358      1436694.2    
    200000   2290.07       -226951.35      0             -208006.7       62536.924      1436860.6    
    200500   2293.9143     -227001.46      0             -208025.01      62334.295      1437027      
    201000   2294.4867     -226994.16      0             -208012.97      61937.314      1437193.2    
    201500   2298.9756     -226991.3       0             -207972.98      62138.411      1437359.3    
    202000   2297.8189     -226924.77      0             -207916.02      62644.563      1437525.4    
    202500   2310.0471     -226967.34      0             -207857.43      62274.044      1437691.3    
    203000   2304.0537     -226873.85      0             -207813.52      62881.95       1437857.1    
    203500   2314.6802     -226942.06      0             -207793.83      62302.303      1438022.9    
    204000   2311.7828     -226931.32      0             -207807.05      62372.199      1438188.6    
    204500   2307.4912     -226937.21      0             -207848.44      62375.382      1438354.2    
    205000   2301.2255     -226943.74      0             -207906.81      62088.457      1438519.7    
    205500   2296.7952     -226964.45      0             -207964.17      61886.048      1438685.2    
    206000   2296.31       -227000.66      0             -208004.39      61766.056      1438850.5    
    206500   2301.0043     -227051.81      0             -208016.71      61585.903      1439015.8    
    207000   2297.3636     -227001.4       0             -207996.41      61591.7        1439180.9    
    207500   2288.7775     -226881.92      0             -207947.96      62301.574      1439345.9    
    208000   2298.6967     -226900.02      0             -207884         61672.372      1439510.8    
    208500   2300.4621     -226853.3       0             -207822.68      62131.829      1439675.7    
    209000   2309.9709     -226891.53      0             -207782.25      62210.841      1439840.4    
    209500   2308.4465     -226867.77      0             -207771.1       61682.74       1440005.1    
    210000   2307.6843     -226884.53      0             -207794.17      61952.467      1440169.7    
    210500   2303.6855     -226901.2       0             -207843.92      61569.611      1440334.3    
    211000   2303.0877     -226956.23      0             -207903.89      61546.704      1440498.7    
    211500   2289.521      -226899.44      0             -207959.33      61599.887      1440663.1    
    212000   2287.7991     -226920.16      0             -207994.29      61235.328      1440827.4    
    212500   2295.393      -226988.84      0             -208000.15      60943.209      1440991.5    
    213000   2293.2859     -226945.11      0             -207973.86      60990.523      1441155.6    
    213500   2300.3719     -226952.02      0             -207922.15      61121.615      1441319.5    
    214000   2297.5295     -226867.44      0             -207861.08      61402.545      1441483.4    
    214500   2308.9895     -226908.81      0             -207807.64      61319.402      1441647.1    
    215000   2313.0756     -226909.1       0             -207774.14      61481.116      1441810.8    
    215500   2307.1889     -226857.05      0             -207770.79      61420.529      1441974.4    
    216000   2318.4385     -226975.23      0             -207795.9       60835.441      1442138      
    216500   2296.3584     -226838.87      0             -207842.2       61140.091      1442301.4    
    217000   2301.453      -226936.34      0             -207897.53      60842.129      1442464.8    
    217500   2292.8117     -226912.52      0             -207945.19      60783.039      1442628.1    
    218000   2288.7664     -226906.96      0             -207973.09      60661.983      1442791.3    
    218500   2289.6767     -226915.97      0             -207974.57      60646.158      1442954.4    
    219000   2288.4974     -226879.75      0             -207948.11      60780.995      1443117.4    
    219500   2293.143      -226870.88      0             -207900.81      60781.788      1443280.2    
    220000   2308.3827     -226939.62      0             -207843.48      60541.041      1443443      
    220500   2309.2642     -226897.12      0             -207793.69      60778.042      1443605.7    
    221000   2309.3424     -226867.87      0             -207763.78      60504.851      1443768.3    
    221500   2312.6952     -226892.02      0             -207760.2       60686.382      1443930.9    
    222000   2302.1105     -226826.96      0             -207782.71      60761.59       1444093.4    
    222500   2298.7201     -226842.49      0             -207826.29      60647.461      1444255.8    
    223000   2304.7373     -226943.35      0             -207877.37      60622.325      1444418.2    
    223500   2300.9695     -226955.94      0             -207921.12      60187.137      1444580.4    
    224000   2297.5861     -226954.69      0             -207947.86      59982.185      1444742.6    
    224500   2289.7064     -226890.71      0             -207949.07      60131.218      1444904.6    
    225000   2291.2673     -226879.7       0             -207925.14      60138.234      1445066.6    
    225500   2300.727      -226915.02      0             -207882.21      59928.579      1445228.5    
    226000   2300.2574     -226859.7       0             -207830.77      60159.58       1445390.3    
    226500   2304.7203     -226851.12      0             -207785.28      59968.098      1445552      
    227000   2304.5957     -226822.09      0             -207757.27      60247.215      1445713.6    
    227500   2307.4325     -226841.3       0             -207753.02      60208.912      1445875.2    
    228000   2303.1741     -226826.57      0             -207773.52      59777.793      1446036.6    
    228500   2297.3636     -226819.15      0             -207814.16      59885.116      1446198.1    
    229000   2296.2932     -226858.25      0             -207862.12      59843.684      1446359.4    
    229500   2297.9286     -226914.5       0             -207904.84      59541.524      1446520.6    
    230000   2293.4543     -226902.21      0             -207929.57      59527.202      1446681.8    
    230500   2293.8835     -226905.76      0             -207929.57      59394.877      1446842.9    
    231000   2294.7199     -226887.22      0             -207904.1       59423.848      1447003.8    
    231500   2291.1787     -226812.87      0             -207859.05      59871.124      1447164.7    
    232000   2295.5795     -226800.15      0             -207809.92      59800.632      1447325.5    
    232500   2312.2283     -226893.58      0             -207765.62      59291.266      1447486.2    
    233000   2311.6648     -226863.22      0             -207739.92      59356.949      1447646.9    
    233500   2299.8032     -226761.6       0             -207736.43      59923.289      1447807.5    
    234000   2309.519      -226863.68      0             -207758.14      59349.286      1447968      
    234500   2299.1852     -226818.95      0             -207798.9       59430.468      1448128.4    
    235000   2290.5485     -226795.03      0             -207846.42      59390.408      1448288.8    
    235500   2298.6955     -226905.26      0             -207889.25      58820.741      1448449.1    
    236000   2292.3017     -226877.45      0             -207914.34      58900.053      1448609.3    
    236500   2296.8995     -226915.35      0             -207914.2       59133.112      1448769.4    
    237000   2298.9632     -226905.65      0             -207887.43      58927.102      1448929.4    
    237500   2298.8531     -226860.08      0             -207842.78      59022.973      1449089.3    
    238000   2303.4192     -226846.5       0             -207791.42      59003.404      1449249.1    
    238500   2307.4233     -226835.1       0             -207746.89      58992.072      1449408.8    
    239000   2299.2053     -226740.62      0             -207720.4       59229.226      1449568.5    
    239500   2302.9124     -226769.77      0             -207718.88      59248.402      1449728.1    
    240000   2311.0505     -226860.91      0             -207742.7       58583.904      1449887.7    
    240500   2293.6525     -226760.7       0             -207786.41      58909.117      1450047.1    
    241000   2294.1473     -226815.29      0             -207836.91      58790.922      1450206.5    
    241500   2299.2199     -226899.49      0             -207879.15      58242.295      1450365.9    
    242000   2296.1217     -226895.77      0             -207901.05      58579.091      1450525.1    
    242500   2293.3536     -226868.15      0             -207896.34      58580.55       1450684.2    
    243000   2289.6995     -226806.1       0             -207864.51      58672.446      1450843.3    
    243500   2305.755      -226888.99      0             -207814.59      58304.453      1451002.2    
    244000   2302.2959     -226809.25      0             -207763.46      58514.209      1451161.1    
    244500   2299.5253     -226746.87      0             -207724.01      58834.598      1451319.9    
    245000   2296.1792     -226701.47      0             -207706.28      58692.748      1451478.7    
    245500   2307.9978     -226806.29      0             -207713.34      58522.648      1451637.4    
    246000   2311.6517     -226867.5       0             -207744.32      58284.314      1451796      
    246500   2302.6079     -226840.32      0             -207791.95      58460.237      1451954.5    
    247000   2298.9946     -226859.09      0             -207840.61      57769.224      1452113      
    247500   2294.5992     -226858.62      0             -207876.5       57791.515      1452271.4    
    248000   2294.1316     -226866.57      0             -207888.32      57816.034      1452429.7    
    248500   2290.5902     -226820.14      0             -207871.18      57922.62       1452587.9    
    249000   2291.9588     -226786.97      0             -207826.69      58166.208      1452746.1    
    249500   2304.9582     -226840.53      0             -207772.72      57751.911      1452904.1    
    250000   2293.3223     -226700.65      0             -207729.1       58013.334      1453062.1    
    250500   2300.8331     -226737.35      0             -207703.67      57986.762      1453219.9    
    251000   2305.5518     -226772.94      0             -207700.21      57930.351      1453377.8    
    251500   2309.2046     -226821.54      0             -207718.6       57642.927      1453535.5    
    252000   2297.7805     -226775.91      0             -207767.47      58072.046      1453693.2    
    252500   2299.9234     -226869.28      0             -207843.12      57344.948      1453850.8    
    253000   2285.6962     -226815.58      0             -207907.11      57323.978      1454008.4    
    253500   2287.9091     -226857.28      0             -207930.51      57345.461      1454165.8    
    254000   2285.0045     -226812.45      0             -207909.7       57255.138      1454323.2    
    254500   2297.0549     -226846.11      0             -207843.68      57132.126      1454480.4    
    255000   2299.1902     -226799.37      0             -207779.28      57472.822      1454637.6    
    255500   2302.621      -226810.5       0             -207762.02      57297.906      1454794.7    
    256000   2303.0051     -226811.73      0             -207760.07      57231.815      1454951.7    
    256500   2303.8154     -226817.86      0             -207759.5       57372.32       1455108.7    
    257000   2294.6411     -226741.82      0             -207759.35      57270.597      1455265.6    
    257500   2300.389      -226785.9       0             -207755.88      57331.818      1455422.4    
    258000   2299.8387     -226776.17      0             -207750.7       57084.893      1455579.1    
    258500   2293.6004     -226717.16      0             -207743.31      57260.338      1455735.8    
    259000   2307.1311     -226816.41      0             -207730.62      56926.392      1455892.4    
    259500   2311.1389     -226830.94      0             -207711.99      57059.18       1456048.9    
    260000   2303.4191     -226748.81      0             -207693.73      56951.958      1456205.4    
    260500   2307.7849     -226771.4       0             -207680.2       56990.528      1456361.8    
    261000   2308.2324     -226774.14      0             -207679.24      56614.17       1456518.1    
    261500   2299.6447     -226722.91      0             -207699.06      57205.39       1456674.4    
    262000   2306.358      -226824.19      0             -207744.8       56497.645      1456830.6    
    262500   2290.4724     -226753.47      0             -207805.5       56750.133      1456986.8    
    263000   2285.4188     -226762.13      0             -207855.96      56411.856      1457142.8    
    263500   2280.2116     -226742.97      0             -207879.87      56607.433      1457298.8    
    264000   2290.0333     -226809.49      0             -207865.14      56435.584      1457454.7    
    264500   2308.7785     -226888.51      0             -207789.1       56331.747      1457610.5    
    265000   2303.1008     -226755.14      0             -207702.7       56572.725      1457766.2    
    265500   2303.2254     -226727.9       0             -207674.42      56714.162      1457921.8    
    266000   2303.8481     -226733.36      0             -207674.73      56616.486      1458077.4    
    266500   2296.3099     -226686.84      0             -207690.57      56581.171      1458232.9    
    267000   2290.6964     -226669.97      0             -207720.14      56729.8        1458388.4    
    267500   2299.7119     -226783.97      0             -207759.55      56046.235      1458543.8    
    268000   2302.8591     -226852.83      0             -207802.38      55955.163      1458699.1    
    268500   2296.9238     -226844.16      0             -207842.81      55898.335      1458854.3    
    269000   2286.3355     -226784.96      0             -207871.21      55597.753      1459009.5    
    269500   2292.0326     -226828.02      0             -207867.14      55636.746      1459164.5    
    270000   2289.185      -226741.7       0             -207804.37      55952.473      1459319.5    
    270500   2292.8515     -226687.56      0             -207719.9       56335.327      1459474.4    
    271000   2304.9326     -226739.75      0             -207672.15      56016.803      1459629.2    
    271500   2302.4432     -226700.67      0             -207653.66      56206.998      1459784      
    272000   2307.3391     -226743.07      0             -207655.56      55970.506      1459938.7    
    272500   2299.0864     -226693.69      0             -207674.45      55867.011      1460093.3    
    273000   2308.4727     -226809.19      0             -207712.3       55455.463      1460247.9    
    273500   2292.5542     -226731.86      0             -207766.66      55545.828      1460402.4    
    274000   2284.1083     -226721.87      0             -207826.54      55896.194      1460556.8    
    274500   2287.6157     -226796.54      0             -207872.19      55360.269      1460711.2    
    275000   2292.0966     -226845.01      0             -207883.6       55179.878      1460865.4    
    275500   2285.0919     -226728.89      0             -207825.42      55642.048      1461019.6    
    276000   2299.9825     -226745.33      0             -207718.68      55589.189      1461173.7    
    276500   2299.4708     -226690.88      0             -207668.47      55391.007      1461327.7    
    277000   2301.9851     -226694.03      0             -207650.81      55588.395      1461481.6    
    277500   2304.3399     -226710.47      0             -207647.78      55503.834      1461635.5    
    278000   2298.1744     -226669.52      0             -207657.83      55417.933      1461789.3    
    278500   2306.4768     -226759.92      0             -207679.54      55212.511      1461943.1    
    279000   2303.9268     -226775         0             -207715.72      55185.824      1462096.8    
    279500   2294.6218     -226742.94      0             -207760.64      55190.144      1462250.5    
    280000   2303.3238     -226861.87      0             -207807.58      54692.49       1462404      
    280500   2292.4852     -226803.24      0             -207838.61      54595.165      1462557.5    
    281000   2283.872      -226727.59      0             -207834.21      54820.291      1462710.9    
    281500   2300.9718     -226800.79      0             -207765.96      54833.793      1462864.2    
    282000   2307.054      -226762.28      0             -207677.13      54883.988      1463017.5    
    282500   2307.633      -226726.38      0             -207636.44      54926.296      1463170.7    
    283000   2312.1996     -226752.93      0             -207625.21      54792.442      1463323.8    
    283500   2299.9746     -226659.1       0             -207632.51      54979.957      1463476.9    
    284000   2299.5319     -226675.96      0             -207653.04      54719.462      1463629.9    
    284500   2304.9537     -226754.14      0             -207686.37      54464.947      1463782.8    
    285000   2298.1131     -226745.86      0             -207734.67      54577.938      1463935.7    
    285500   2301.1575     -226825.56      0             -207789.19      54342.337      1464088.6    
    286000   2290.0297     -226780.98      0             -207836.66      54510.401      1464241.3    
    286500   2283.8241     -226746.55      0             -207853.57      54458.471      1464393.9    
    287000   2280.3164     -226672.03      0             -207808.06      54663.092      1464546.5    
    287500   2294.8482     -226689.88      0             -207705.7       54476.444      1464699      
    288000   2303.1608     -226699.56      0             -207646.62      54696.175      1464851.4    
    288500   2299.3187     -226645.37      0             -207624.21      54783.562      1465003.8    
    289000   2298.841      -226635.97      0             -207618.77      54621.185      1465156.1    
    289500   2304.9307     -226691.43      0             -207623.84      54336.621      1465308.3    
    290000   2295.4604     -226624.91      0             -207635.67      54564.354      1465460.5    
    290500   2296.5772     -226657.87      0             -207659.39      54029.072      1465612.7    
    291000   2285.1345     -226601.28      0             -207697.45      54715.261      1465764.7    
    291500   2297.5833     -226751.11      0             -207744.31      53926.214      1465916.8    
    292000   2295.0802     -226770.12      0             -207784.02      54088.484      1466068.7    
    292500   2297.7066     -226806.59      0             -207798.77      53955.278      1466220.5    
    293000   2286.6213     -226680.75      0             -207764.63      54005.039      1466372.3    
    293500   2301.9761     -226721.42      0             -207678.28      53517.504      1466524      
    294000   2299.9636     -226639.43      0             -207612.93      53915.11       1466675.6    
    294500   2305.3559     -226660         0             -207588.89      54163.744      1466827.2    
    295000   2303.875      -226647.25      0             -207588.39      53852.675      1466978.7    
    295500   2305.6306     -226676.7       0             -207603.32      53846.435      1467130.2    
    296000   2309.1437     -226732.08      0             -207629.64      53690.782      1467281.6    
    296500   2297.8574     -226676.78      0             -207667.71      53810.5        1467432.9    
    297000   2295.529      -226706.23      0             -207716.42      53532.937      1467584.2    
    297500   2293.8179     -226747.89      0             -207772.24      53610.115      1467735.4    
    298000   2287.8695     -226742.91      0             -207816.46      53455.312      1467886.5    
    298500   2289.7692     -226763.2       0             -207821.04      53320.06       1468037.5    
    299000   2291.6883     -226717.1       0             -207759.06      53491.793      1468188.5    
    299500   2307.7971     -226754.19      0             -207662.9       53348.94       1468339.3    
    300000   2287.3055     -226536.75      0             -207614.97      54219.261      1468490.2    
    300500   2301.6308     -226634.29      0             -207594         53640.746      1468640.9    
    301000   2304.0265     -226648.22      0             -207588.11      53680.497      1468791.6    
    301500   2303.9855     -226652.4       0             -207592.63      53304.433      1468942.3    
    302000   2308.8839     -226707.59      0             -207607.3       53330.777      1469092.9    
    302500   2296.4929     -226633.44      0             -207635.65      53130.771      1469243.4    
    303000   2299.3883     -226699.44      0             -207677.7       53147.65       1469393.9    
    303500   2291.728      -226681.58      0             -207723.21      52947.458      1469544.3    
    304000   2286.5268     -226669.89      0             -207754.55      53184.634      1469694.7    
    304500   2290.2077     -226698.55      0             -207752.76      53082.836      1469844.9    
    305000   2293.0932     -226665.75      0             -207696.09      53093.622      1469995.1    
    305500   2300.5068     -226639.47      0             -207608.48      53279.822      1470145.2    
    306000   2305.2204     -226631.8       0             -207561.82      53241.448      1470295.3    
    306500   2315.3333     -226702.98      0             -207549.34      52783.088      1470445.3    
    307000   2304.1658     -226616.69      0             -207555.44      53322.771      1470595.2    
    307500   2300.7045     -226607.94      0             -207575.31      53186.364      1470745.1    
    308000   2295.4482     -226595.27      0             -207606.13      53213.959      1470895      
    308500   2304.3592     -226713.91      0             -207651.05      52856.786      1471044.8    
    309000   2295.0186     -226695.97      0             -207710.38      52617.613      1471194.5    
    309500   2291.293      -226722.53      0             -207767.76      52479.421      1471344.2    
    310000   2287.2815     -226717.12      0             -207795.54      52247.014      1471493.8    
    310500   2286.2723     -226675.94      0             -207762.7       52433.74       1471643.3    
    311000   2298.2901     -226670.75      0             -207658.1       52514.611      1471792.7    
    311500   2303.752      -226649.52      0             -207591.69      52721.776      1471942      
    312000   2305.127      -226633.73      0             -207564.52      52459.364      1472091.3    
    312500   2306.0147     -226628.2       0             -207551.64      52400.142      1472240.6    
    313000   2300.3169     -226577.34      0             -207547.92      52907.904      1472389.8    
    313500   2304.6504     -226619.76      0             -207554.49      52558.759      1472538.9    
    314000   2305.3251     -226644.8       0             -207573.95      52498.412      1472688      
    314500   2291.8731     -226567.48      0             -207607.92      52524.899      1472837.1    
    315000   2296.9706     -226654.67      0             -207652.94      52519.218      1472986.1    
    315500   2287.7305     -226621.03      0             -207695.74      52354.074      1473135      
    316000   2290.6796     -226668.23      0             -207718.53      52303.677      1473283.9    
    316500   2289.58       -226641.69      0             -207701.1       52283.005      1473432.6    
    317000   2300.531      -226655.06      0             -207623.87      52085.563      1473581.3    
    317500   2295.4814     -226535.35      0             -207545.93      52360.45       1473730      
    318000   2303.5718     -226569.17      0             -207512.83      52085.418      1473878.6    
    318500   2298.8846     -226524.5       0             -207506.94      52435.14       1474027.1    
    319000   2303.6169     -226575.04      0             -207518.32      52211.751      1474175.6    
    319500   2297.9515     -226553.48      0             -207543.63      52176.085      1474324.1    
    320000   2303.2241     -226634.46      0             -207580.99      51825.848      1474472.5    
    320500   2291.6671     -226592.04      0             -207634.18      52011.748      1474620.8    
    321000   2294.3874     -226677.66      0             -207697.3       51558.784      1474769.1    
    321500   2286.4489     -226661.79      0             -207747.1       51482.321      1474917.3    
    322000   2280.6765     -226622.23      0             -207755.29      51522.47       1475065.4    
    322500   2297.2814     -226687.49      0             -207683.19      51159.261      1475213.5    
    323000   2297.7089     -226586.24      0             -207578.39      51697.049      1475361.4    
    323500   2300.1105     -226562.16      0             -207534.45      51767.615      1475509.3    
    324000   2301.9898     -226557.47      0             -207514.22      51696.975      1475657.2    
    324500   2301.7346     -226546.27      0             -207505.12      51983.519      1475804.9    
    325000   2297.4309     -226510.34      0             -207504.8       51944.493      1475952.7    
    325500   2307.7086     -226606.61      0             -207516.04      51586.951      1476100.4    
    326000   2291.625      -226496.6       0             -207539.09      51762.521      1476248.1    
    326500   2298.9126     -226589.63      0             -207571.83      51470.617      1476395.7    
    327000   2293.3293     -226582.04      0             -207610.43      51151.8        1476543.2    
    327500   2290.424      -226591.59      0             -207644.01      51369.167      1476690.7    
    328000   2290.274      -226603.22      0             -207656.88      51350.08       1476838.1    
    328500   2289.4224     -226569.57      0             -207630.28      51122.864      1476985.5    
    329000   2293.8142     -226531.07      0             -207555.45      51404.242      1477132.8    
    329500   2301.0433     -226520.4       0             -207484.97      51353.295      1477280      
    330000   2305.7706     -226529.42      0             -207454.89      51204.75       1477427.2    
    330500   2301.4307     -226492.4       0             -207453.77      51436.735      1477574.3    
    331000   2305.1114     -226539.07      0             -207469.99      51473.518      1477721.4    
    331500   2303.5617     -226558.56      0             -207502.3       51085.895      1477868.4    
    332000   2295.8741     -226545.28      0             -207552.62      51014.394      1478015.4    
    332500   2286.8747     -226533.94      0             -207615.72      51165.714      1478162.4    
    333000   2281.4338     -226553.33      0             -207680.12      51077.4        1478309.2    
    333500   2285.5738     -226630.94      0             -207723.48      50560.144      1478456      
    334000   2294.3699     -226703.73      0             -207723.51      50317.349      1478602.7    
    334500   2301.272      -226669.01      0             -207631.69      50523.741      1478749.3    
    335000   2302.7168     -226584.36      0             -207535.09      50667.155      1478895.9    
    335500   2295.9878     -226483.49      0             -207489.88      50861.084      1479042.4    
    336000   2306.0718     -226541.39      0             -207464.37      50752.717      1479188.8    
    336500   2303.4746     -226505.75      0             -207450.21      50849.741      1479335.2    
    337000   2299.8707     -226473.56      0             -207447.83      50646.381      1479481.6    
    337500   2300.535      -226493.4       0             -207462.18      50810.108      1479627.9    
    338000   2300.03       -226518.11      0             -207491.06      50693.084      1479774.2    
    338500   2301.662      -226572.18      0             -207531.63      50668.769      1479920.4    
    339000   2300.5147     -226610.22      0             -207579.16      50114.844      1480066.5    
    339500   2285.7532     -226528.71      0             -207619.77      50290.797      1480212.6    
    340000   2292.9873     -226602.82      0             -207634.04      50090.642      1480358.6    
    340500   2290.2277     -226542.89      0             -207596.94      50421.305      1480504.5    
    341000   2300.8053     -226537.69      0             -207504.23      50754.782      1480650.4    
    341500   2302.3739     -226486         0             -207439.56      50717.19       1480796.2    
    342000   2306.7385     -226502.4       0             -207419.85      50400.847      1480941.9    
    342500   2307.2013     -226511.09      0             -207424.72      50550.202      1481087.6    
    343000   2308.9117     -226546.67      0             -207446.15      50086.97       1481233.3    
    343500   2295.5492     -226471         0             -207481.03      50365.574      1481379      
    344000   2292.5586     -226491.89      0             -207526.66      50402.247      1481524.6    
    344500   2295.9043     -226569.66      0             -207576.74      49963.557      1481670.1    
    345000   2294.2415     -226604.7       0             -207625.54      49461.399      1481815.6    
    345500   2286.8661     -226572.84      0             -207654.69      49630.868      1481961      
    346000   2288.1383     -226563.06      0             -207634.39      49859.578      1482106.3    
    346500   2291.0598     -226495.25      0             -207542.41      49803.111      1482251.5    
    347000   2299.1022     -226484.36      0             -207464.99      50047.17       1482396.7    
    347500   2296.2333     -226422.66      0             -207427.03      50386.925      1482541.8    
    348000   2303.7756     -226469.46      0             -207411.43      49930.74       1482686.8    
    348500   2296.5743     -226407.81      0             -207409.35      50270.185      1482831.9    
    349000   2306.3446     -226499.28      0             -207419.99      49791.572      1482976.9    
    349500   2302.6542     -226497.11      0             -207448.36      50112.882      1483121.8    
    350000   2299.7676     -226519.39      0             -207494.52      49907.485      1483266.7    
    350500   2290.5777     -226496.67      0             -207547.82      49397.359      1483411.5    
    351000   2282.9589     -226477.52      0             -207591.7       49659.5        1483556.3    
    351500   2283.2525     -226494.63      0             -207606.38      49473.341      1483701      
    352000   2289.9342     -226509.22      0             -207565.69      49302.122      1483845.6    
    352500   2295.4745     -226455.34      0             -207465.98      49726.359      1483990.1    
    353000   2303.9494     -226463.23      0             -207403.76      49490.361      1484134.6    
    353500   2307.6114     -226474.32      0             -207384.56      49999.301      1484279.1    
    354000   2303.9413     -226444.92      0             -207385.52      49775.859      1484423.5    
    354500   2306.0196     -226478.79      0             -207402.19      49666.672      1484567.8    
    355000   2299.3375     -226451.93      0             -207430.62      49397.008      1484712.1    
    355500   2304.9488     -226540.89      0             -207473.15      49063.554      1484856.4    
    356000   2302.3649     -226567.56      0             -207521.2       48698.209      1485000.6    
    356500   2285.0162     -226470.6       0             -207567.76      49286.813      1485144.8    
    357000   2289.5569     -226534.4       0             -207593.99      48888.662      1485288.9    
    357500   2300.057      -226602.96      0             -207575.7       48763.172      1485432.9    
    358000   2295.8753     -226481.28      0             -207488.6       48675.766      1485576.8    
    358500   2304.761      -226474.43      0             -207408.25      49049.736      1485720.7    
    359000   2304.0832     -226434.02      0             -207373.44      49453.764      1485864.6    
    359500   2304.4605     -226426.79      0             -207363.1       49275.646      1486008.4    
    360000   2303.7286     -226426.84      0             -207369.2       49306.383      1486152.1    
    360500   2294.0437     -226371.02      0             -207393.5       49399.902      1486295.9    
    361000   2300.678      -226468.01      0             -207435.6       48994.284      1486439.6    
    361500   2293.5324     -226462.46      0             -207489.17      48782.781      1486583.2    
    362000   2285.8045     -226447.59      0             -207538.23      48950.378      1486726.8    
    362500   2285.2976     -226475.63      0             -207570.46      48793.053      1486870.3    
    363000   2292.8694     -226530.44      0             -207562.63      48101.394      1487013.7    
    363500   2288.3097     -226411.44      0             -207481.36      48651.042      1487157      
    364000   2309.1075     -226491.72      0             -207389.58      48340.648      1487300.3    
    364500   2300.1299     -226379.24      0             -207351.37      48935.241      1487443.5    
    365000   2298.9832     -226360.03      0             -207341.64      48996.633      1487586.7    
    365500   2303.6113     -226404.6       0             -207347.93      48515.605      1487729.9    
    366000   2297.5245     -226378.17      0             -207371.85      48858.726      1487873      
    366500   2296.4555     -226408.33      0             -207410.85      48733.029      1488016.1    
    367000   2300.4801     -226490.45      0             -207459.68      48234.982      1488159.1    
    367500   2280.6617     -226374.44      0             -207507.62      48566.109      1488302.1    
    368000   2299.4209     -226562.75      0             -207540.74      48141.97       1488445      
    368500   2294.0335     -226519.38      0             -207541.94      48126.197      1488587.8    
    369000   2296.8845     -226478.5       0             -207477.48      47964.251      1488730.5    
    369500   2302.097      -226423.81      0             -207379.66      48244.502      1488873.2    
    370000   2308.8879     -226432.08      0             -207331.76      48501.289      1489015.8    
    370500   2310.6354     -226432.63      0             -207317.85      48296.377      1489158.4    
    371000   2297.086      -226325.55      0             -207322.86      48475.77       1489301      
    371500   2301.2646     -226380.8       0             -207343.55      48197.85       1489443.5    
    372000   2300.5302     -226411.86      0             -207380.68      48179.36       1489585.9    
    372500   2298.0912     -226444.28      0             -207433.28      47755.285      1489728.4    
    373000   2287.4081     -226407.62      0             -207484.99      47977.268      1489870.7    
    373500   2294.009      -226496.48      0             -207519.25      47769.888      1490013      
    374000   2285.2568     -226423.09      0             -207518.26      47947.857      1490155.3    
    374500   2298.5848     -226461.51      0             -207446.42      47696.661      1490297.4    
    375000   2305.4288     -226420.23      0             -207348.52      47983.697      1490439.5    
    375500   2315.9464     -226464.1       0             -207305.39      48091.155      1490581.6    
    376000   2301.0558     -226329.44      0             -207293.91      48047.576      1490723.6    
    376500   2309.7917     -226408.21      0             -207300.42      47969.44       1490865.6    
    377000   2295.692      -226315.43      0             -207324.27      47953.381      1491007.5    
    377500   2299.917      -226391.99      0             -207365.88      47593.372      1491149.4    
    378000   2285.7814     -226328.06      0             -207418.88      47991.971      1491291.3    
    378500   2280.1728     -226330.43      0             -207467.65      47908.303      1491433.1    
    379000   2293.8706     -226473.87      0             -207497.78      47271.986      1491574.8    
    379500   2290.7285     -226442.65      0             -207492.55      47247.703      1491716.4    
    380000   2292.5923     -226379.3       0             -207413.78      47389.259      1491858      
    380500   2305.2685     -226389.54      0             -207319.16      47774.195      1491999.5    
    381000   2301.1981     -226314.97      0             -207278.27      47668.685      1492141      
    381500   2294.7505     -226252.21      0             -207268.84      47884.029      1492282.4    
[...]
   3908500   2293.6658     -211287.09      0             -192312.69      7139.6521      2162073.8    
   3909000   2284.9816     -211195.49      0             -192292.93      7272.9294      2162149.6    
   3909500   2288.7199     -211188.23      0             -192254.75      7247.9141      2162225.3    
   3910000   2298.9236     -211234.88      0             -192216.99      6954.2151      2162301.1    
   3910500   2300.7938     -211216.13      0             -192182.77      7261.7971      2162376.7    
   3911000   2294.8453     -211118.09      0             -192133.94      7661.5066      2162452.4    
   3911500   2305.4366     -211152.97      0             -192081.2       7751.5762      2162528.1    
   3912000   2303.5857     -211104.98      0             -192048.52      7486.2111      2162603.7    
   3912500   2291.8619     -211003.12      0             -192043.64      7633.4723      2162679.4    
   3913000   2309.7302     -211172.13      0             -192064.84      7799.4413      2162755.1    
   3913500   2303.1456     -211168.88      0             -192116.06      7228.5177      2162830.8    
   3914000   2297.425      -211207.2       0             -192201.7       7441.8717      2162906.4    
   3914500   2289.2655     -211200.89      0             -192262.9       7471.2862      2162982      
   3915000   2292.2643     -211233.51      0             -192270.7       7593.7182      2163057.6    
   3915500   2293.3355     -211217.78      0             -192246.11      7668.3824      2163133.2    
   3916000   2302.0332     -211256.83      0             -192213.22      7160.1245      2163208.8    
   3916500   2296.8918     -211175.46      0             -192174.38      7323.3908      2163284.3    
   3917000   2298.6415     -211153.68      0             -192138.12      7285.2311      2163359.8    
   3917500   2298.9853     -211127.44      0             -192109.04      7207.2668      2163435.3    
   3918000   2299.8634     -211113.73      0             -192088.07      7432.4902      2163510.8    
   3918500   2303.6949     -211126.76      0             -192069.4       7482.6618      2163586.2    
   3919000   2300.6093     -211089.11      0             -192057.27      7565.4948      2163661.6    
   3919500   2297.4777     -211033.19      0             -192027.26      7564.2019      2163737      
   3920000   2306.5499     -211045.56      0             -191964.57      7536.184       2163812.4    
   3920500   2313.7249     -211035.4       0             -191895.07      7701.0664      2163887.7    
   3921000   2314.1283     -211008.52      0             -191864.85      7396.8491      2163963.1    
   3921500   2304.9447     -210957.71      0             -191890.01      7593.5958      2164038.5    
   3922000   2312.7356     -211107.23      0             -191975.08      7482.3535      2164113.9    
   3922500   2294.1836     -211031.76      0             -192053.08      7506.8058      2164189.3    
   3923000   2300.735      -211123.87      0             -192090.99      7356.8228      2164264.7    
   3923500   2294.9259     -211099.18      0             -192114.36      7291.5653      2164340.1    
   3924000   2290.7028     -211067.82      0             -192117.93      7427.0553      2164415.4    
   3924500   2309.6113     -211205.39      0             -192099.09      7163.5901      2164490.7    
   3925000   2296.9072     -211084.82      0             -192083.61      7414.0563      2164566      
   3925500   2297.2039     -211064.34      0             -192060.67      7254.5537      2164641.3    
   3926000   2305.2561     -211102.6       0             -192032.32      7339.6778      2164716.6    
   3926500   2299.7558     -211008.5       0             -191983.73      7319.3503      2164791.9    
   3927000   2312.978      -211069.84      0             -191935.69      7630.1946      2164867.2    
   3927500   2313.0477     -211046.59      0             -191911.86      7925.0157      2164942.6    
   3928000   2313.7923     -211068.85      0             -191927.95      7694.3874      2165017.9    
   3928500   2298.1307     -211011.92      0             -192000.59      7378.4532      2165093.3    
   3929000   2295.3368     -211087.55      0             -192099.33      7180.455       2165168.7    
   3929500   2291.2216     -211093.63      0             -192139.46      7080.4091      2165244.1    
   3930000   2295.7014     -211134.69      0             -192143.45      7570.4828      2165319.4    
   3930500   2307.3099     -211222.28      0             -192135.01      7101.3822      2165394.8    
   3931000   2296.4054     -211122.54      0             -192125.48      7352.7696      2165470.1    
   3931500   2301.1868     -211137.86      0             -192101.25      7176.444       2165545.5    
   3932000   2300.8446     -211090.12      0             -192056.34      7496.8913      2165620.8    
   3932500   2297.1625     -210997.1       0             -191993.78      7461.8084      2165696.1    
   3933000   2309.3389     -211032.6       0             -191928.55      7510.4022      2165771.4    
   3933500   2301.2743     -210939.4       0             -191902.06      7608.0718      2165846.7    
   3934000   2302.3615     -210956.11      0             -191909.78      7363.213       2165922      
   3934500   2300.3924     -210982.09      0             -191952.05      7624.6575      2165997.2    
   3935000   2304.3068     -211128.8       0             -192066.38      7134.6256      2166072.5    
   3935500   2313.1733     -211280.55      0             -192144.78      7273.4941      2166147.8    
   3936000   2300.282      -211192.02      0             -192162.89      7392.2532      2166223      
   3936500   2299.1735     -211177.35      0             -192157.4       7561.3127      2166298.3    
   3937000   2299.8467     -211162.49      0             -192136.96      7333.0357      2166373.5    
   3937500   2290.3288     -211048.89      0             -192102.09      7287.5725      2166448.7    
   3938000   2302.2939     -211094.61      0             -192048.84      7205.174       2166523.8    
   3938500   2306.4521     -211078.78      0             -191998.61      7443.4115      2166599      
   3939000   2296.9572     -210971.29      0             -191969.67      7619.0285      2166674.1    
   3939500   2298.135      -210962.69      0             -191951.32      7259.8402      2166749.2    
   3940000   2304.8388     -211021.33      0             -191954.51      7304.4512      2166824.3    
   3940500   2294.7118     -210986.85      0             -192003.8       7308.385       2166899.4    
   3941000   2302.5443     -211158.51      0             -192110.67      6973.3702      2166974.5    
   3941500   2292.2071     -211144.91      0             -192182.58      7275.3155      2167049.5    
   3942000   2298.8252     -211218.38      0             -192201.31      7503.7441      2167124.6    
   3942500   2297.4136     -211200.11      0             -192194.71      7119.3947      2167199.5    
   3943000   2291.9306     -211110.36      0             -192150.32      7217.1709      2167274.5    
   3943500   2299.4661     -211119.71      0             -192097.33      6990.4146      2167349.4    
   3944000   2302.0134     -211094.74      0             -192051.29      7413.6323      2167424.3    
   3944500   2299.9369     -211049.11      0             -192022.83      7609.475       2167499.1    
   3945000   2306.3258     -211091.64      0             -192012.51      7251.5083      2167574      
   3945500   2304.1886     -211081.09      0             -192019.64      7647.054       2167648.8    
   3946000   2302.5412     -211080.27      0             -192032.45      7386.3741      2167723.7    
   3946500   2294.4046     -211037.23      0             -192056.72      7214.2597      2167798.6    
   3947000   2306.078      -211153.22      0             -192076.15      7280.1243      2167873.4    
   3947500   2301.323      -211120.72      0             -192082.98      7276.7543      2167948.3    
   3948000   2302.9509     -211134.63      0             -192083.43      6953.36        2168023.3    
   3948500   2299.748      -211102.42      0             -192077.71      7353.2737      2168098.1    
   3949000   2300.8234     -211101.59      0             -192067.99      7151.4236      2168173      
   3949500   2302.0301     -211086.82      0             -192043.23      7426.0268      2168247.8    
   3950000   2300.9907     -211042.76      0             -192007.77      7479.2024      2168322.5    
   3950500   2304.6592     -211029.33      0             -191963.99      7173.7584      2168397.3    
   3951000   2300.033      -210952.47      0             -191925.4       7137.8113      2168472.1    
   3951500   2304.409      -210961.55      0             -191898.28      7232.5565      2168546.9    
   3952000   2312.0068     -211018.2       0             -191892.08      7307.0792      2168621.7    
   3952500   2301.6093     -210974         0             -191933.89      7492.2608      2168696.5    
   3953000   2298.7195     -211042.67      0             -192026.47      7112.7233      2168771.2    
   3953500   2291.9543     -211054.61      0             -192094.37      7080.1496      2168846      
   3954000   2298.0328     -211132.6       0             -192122.07      7179.2946      2168920.8    
   3954500   2291.4596     -211090.1       0             -192133.96      7099.9497      2168995.5    
   3955000   2300.2657     -211158.73      0             -192129.74      7244.343       2169070.2    
   3955500   2291.7983     -211063.13      0             -192104.19      7375.8004      2169144.9    
   3956000   2303.8378     -211090.03      0             -192031.48      7277.2739      2169219.6    
   3956500   2297.764      -210962.01      0             -191953.71      7483.1303      2169294.3    
   3957000   2302.4314     -210972.5       0             -191925.59      7064.6671      2169369      
   3957500   2304.8072     -210990         0             -191923.43      7218.2867      2169443.7    
   3958000   2299.4728     -210959.4       0             -191936.96      7329.2986      2169518.4    
   3958500   2302.0765     -211008.73      0             -191964.75      7622.3261      2169593.1    
   3959000   2293.6559     -210976.09      0             -192001.78      7069.6167      2169667.9    
   3959500   2292.7816     -211007.08      0             -192040         7212.1711      2169742.6    
   3960000   2297.5213     -211076.56      0             -192070.27      7090.5678      2169817.3    
   3960500   2299.592      -211106.5       0             -192083.08      7129.0471      2169892      
   3961000   2304.2912     -211142.54      0             -192080.25      7186.7948      2169966.6    
   3961500   2298.0221     -211081.8       0             -192071.37      7303.0413      2170041.2    
   3962000   2290.5634     -211005.84      0             -192057.11      7328.0516      2170115.8    
   3962500   2302.4187     -211084.69      0             -192037.89      7347.0912      2170190.3    
   3963000   2296.2825     -211018.03      0             -192021.99      7337.3102      2170264.9    
   3963500   2288.5927     -210954.84      0             -192022.41      7579.596       2170339.5    
   3964000   2299.5146     -211055.03      0             -192032.25      7164.7085      2170414.1    
   3964500   2292.3793     -211039.62      0             -192075.87      7233.1579      2170488.6    
   3965000   2301.0912     -211194.65      0             -192158.83      7113.9321      2170563.2    
   3965500   2289.0683     -211153.07      0             -192216.71      6870.8657      2170637.7    
   3966000   2290.3981     -211173.88      0             -192226.52      7002.1344      2170712.2    
   3966500   2281.1896     -211063.5       0             -192192.31      7249.3071      2170786.7    
   3967000   2292.2649     -211082.65      0             -192119.84      7192.3186      2170861.2    
   3967500   2294.6311     -211037.09      0             -192054.71      7036.0582      2170935.7    
   3968000   2305.8517     -211090.7       0             -192015.49      7602.26        2171010.1    
   3968500   2289.7842     -210940.55      0             -191998.27      7067.1615      2171084.5    
   3969000   2307.7989     -211079.79      0             -191988.47      7295.7564      2171158.9    
   3969500   2294.5071     -210973.8       0             -191992.44      7293.5102      2171233.3    
   3970000   2296.9937     -210999.44      0             -191997.52      6945.7811      2171307.7    
   3970500   2300.1841     -211023.68      0             -191995.36      7199.8212      2171382.1    
   3971000   2292.2829     -210933.99      0             -191971.03      7141.8413      2171456.4    
   3971500   2305.2172     -210984.78      0             -191914.83      7099.8604      2171530.7    
   3972000   2298.5956     -210876.11      0             -191860.93      7388.9937      2171604.9    
   3972500   2297.0839     -210838.41      0             -191835.74      7374.8732      2171679.1    
   3973000   2306.6591     -210920.4       0             -191838.52      7321.5725      2171753.3    
   3973500   2309.0098     -210997.89      0             -191896.56      7020.4573      2171827.5    
   3974000   2298.7572     -211002.37      0             -191985.85      6897.216       2171901.8    
   3974500   2302.0964     -211083.43      0             -192039.29      6772.2807      2171975.9    
   3975000   2296.6941     -211064.1       0             -192064.65      6869.0169      2172050.1    
   3975500   2299.5969     -211094.32      0             -192070.86      7068.4767      2172124.2    
   3976000   2298.3298     -211081.84      0             -192068.86      7330.7424      2172198.3    
   3976500   2294.7757     -211033.3       0             -192049.72      7258.9969      2172272.4    
   3977000   2301.274      -211042.57      0             -192005.24      7101.8323      2172346.4    
   3977500   2306.7548     -211029.73      0             -191947.05      6991.9022      2172420.5    
   3978000   2308.2735     -210985.85      0             -191890.61      7362.8794      2172494.5    
   3978500   2308.317      -210947.62      0             -191852.02      7070.5679      2172568.5    
   3979000   2311.4265     -210966.93      0             -191845.61      7098.5373      2172642.6    
   3979500   2302.434      -210951.67      0             -191904.74      6982.3915      2172716.6    
   3980000   2297.6227     -211027.46      0             -192020.33      7205.1544      2172790.7    
   3980500   2304.5524     -211139.12      0             -192074.66      6861.7656      2172864.7    
   3981000   2294.4365     -211070.65      0             -192089.88      6654.8185      2172938.8    
   3981500   2298.6762     -211088.73      0             -192072.88      7068.0957      2173012.7    
   3982000   2291.265      -210985.61      0             -192031.07      7009.648       2173086.7    
   3982500   2300.1071     -211001.4       0             -191973.72      7001.2164      2173160.6    
   3983000   2298.2876     -210935.89      0             -191923.26      7293.3404      2173234.5    
   3983500   2307.5249     -210976.91      0             -191887.87      7412.8504      2173308.4    
   3984000   2304.5544     -210939.79      0             -191875.32      7058.0599      2173382.3    
   3984500   2314.1836     -211042.95      0             -191898.82      6970.1183      2173456.3    
   3985000   2302.6698     -211003.69      0             -191954.81      7190.2156      2173530.2    
   3985500   2312.0181     -211143.78      0             -192017.56      7083.0309      2173604.1    
   3986000   2296.2955     -211041.25      0             -192045.1       6886.71        2173678      
   3986500   2299.6132     -211072.31      0             -192048.72      6835.8202      2173751.8    
   3987000   2296.6656     -211039.96      0             -192040.75      7039.1911      2173825.7    
   3987500   2293.743      -211000.55      0             -192025.52      7010.1222      2173899.5    
   3988000   2298.9962     -211015.08      0             -191996.59      6950.8852      2173973.3    
   3988500   2309.1417     -211069.22      0             -191966.8       7296.0025      2174047.1    
   3989000   2303.3629     -211003.28      0             -191948.66      6643.0631      2174120.9    
   3989500   2304.4631     -211001.88      0             -191938.16      6984.8453      2174194.7    
   3990000   2305.4465     -211004.3       0             -191932.44      6966.4571      2174268.5    
   3990500   2306.8179     -211024.73      0             -191941.53      7176.3746      2174342.3    
   3991000   2294.7715     -210951.37      0             -191967.82      7483.6673      2174416      
   3991500   2300.9051     -211044.78      0             -192010.49      7192.1976      2174489.8    
   3992000   2305.1105     -211119.05      0             -192049.98      7458.0494      2174563.6    
   3992500   2298.2448     -211107.85      0             -192095.57      6793.9207      2174637.4    
   3993000   2295.6097     -211111.31      0             -192120.83      6819.2165      2174711.2    
   3993500   2287.0801     -211025.13      0             -192105.21      6924.9122      2174784.9    
   3994000   2311.133      -211163.6       0             -192044.71      6763.0841      2174858.5    
   3994500   2291.9056     -210918.26      0             -191958.42      7200.0819      2174932.2    
   3995000   2303.1492     -210948.38      0             -191895.53      7116.1774      2175005.8    
   3995500   2305.8675     -210950.56      0             -191875.22      6966.4181      2175079.5    
   3996000   2306.5282     -210951         0             -191870.2       7327.098       2175153.1    
   3996500   2301.4444     -210925.27      0             -191886.52      6870.9072      2175226.7    
   3997000   2296.6229     -210920.98      0             -191922.12      7246.8378      2175300.3    
   3997500   2298.6123     -210989.09      0             -191973.77      7079.2446      2175374      
   3998000   2299.1649     -211042.96      0             -192023.07      7039.0326      2175447.6    
   3998500   2288.3644     -210996.95      0             -192066.41      6920.0592      2175521.3    
   3999000   2290.211      -211028.11      0             -192082.3       7176.4731      2175594.9    
   3999500   2293.8664     -211046.26      0             -192070.2       6613.0969      2175668.5    
   4000000   2287.4734     -210977.67      0             -192054.5       6720.9725      2175742      
Loop time of 164303 on 4 procs for 4000000 steps with 64000 atoms

Performance: 2.103 ns/day, 11.410 hours/ns, 24.345 timesteps/s, 1.558 Matom-step/s
92.7% CPU use with 4 MPI tasks x no OpenMP threads

MPI task timing breakdown:
Section |  min time  |  avg time  |  max time  |%varavg| %total
---------------------------------------------------------------
Pair    | 1.1192e+05 | 1.2877e+05 | 1.4808e+05 |4620.6 | 78.38
Neigh   | 7572.4     | 8488.8     | 9423.8     | 976.0 |  5.17
Comm    | 2410.4     | 22719      | 40533      |11639.5 | 13.83
Output  | 1090.5     | 1090.5     | 1090.6     |   0.1 |  0.66
Modify  | 2921.3     | 2979.4     | 3049.1     | 100.1 |  1.81
Other   |            | 250.6      |            |       |  0.15

Nlocal:          16000 ave       16098 max       15906 min
Histogram: 1 0 0 0 1 1 0 0 0 1
Nghost:          17594 ave       17631 max       17521 min
Histogram: 1 0 0 0 0 0 0 1 0 2
Neighs:    1.30467e+06 ave 1.32432e+06 max 1.27844e+06 min
Histogram: 1 0 0 0 1 0 0 0 1 1

Total # of neighbors = 5218670
Ave neighs/atom = 81.541719
Neighbor list builds = 167955
Dangerous builds = 0
Total wall time: 45:38:23
