LAMMPS (23 Jun 2022 - Update 4)
# 3d vashishta

units		metal
atom_style	atomic

boundary        p p p


lattice		custom 1              a1 5.5392  0. 0.              a2 0.0 5.5392  0.0            a3 0.0 0.0 5.5392             basis 0.   0.   0.            basis 0.5  0.5  0.            basis 0.5  0.   0.5            basis 0.   0.5  0.5            basis 0.5  0.   0.             basis 0.   0.5  0.             basis 0.   0.   0.5             basis 0.5  0.5  0.5
Lattice spacing in x,y,z = 5.5392 5.5392 5.5392


region		caixa block 0 20 0 20 0 20
create_box	2 caixa
Created orthogonal box = (0 0 0) to (110.784 110.784 110.784)
  1 by 2 by 5 MPI processor grid
create_atoms	1 region caixa basis 1 1 basis 2 1 basis 3 1 basis 4 1             	  basis 5 2 basis 6 2 basis 7 2 basis 8 2
Created 64000 atoms
  using lattice units in orthogonal box = (0 0 0) to (110.784 110.784 110.784)
  create_atoms CPU = 0.002 seconds

mass		1 137.33
mass		2 15.9994

#velocity	all create 2100. 473204 dist gaussian
velocity        all create 500. 473204 dist gaussian

group		Ba type 1
32000 atoms in group Ba
group		O type 2
32000 atoms in group O

pair_style	table linear 50000
pair_coeff	1 1 Pot_BaO Vash_11
WARNING: 23463 of 50000 force values in table Vash_11 are inconsistent with -dE/dr.
WARNING:  Should only be flagged at inflection points (../pair_table.cpp:463)
WARNING: 43814 of 50000 distance values in table 1e-06 with relative error
WARNING:  over Vash_11 to re-computed values (../pair_table.cpp:471)
pair_coeff	1 2 Pot_BaO Vash_12
WARNING: 23576 of 50000 force values in table Vash_12 are inconsistent with -dE/dr.
WARNING:  Should only be flagged at inflection points (../pair_table.cpp:463)
WARNING: 43814 of 50000 distance values in table 1e-06 with relative error
WARNING:  over Vash_12 to re-computed values (../pair_table.cpp:471)
pair_coeff	2 2 Pot_BaO Vash_22
WARNING: 23794 of 50000 force values in table Vash_22 are inconsistent with -dE/dr.
WARNING:  Should only be flagged at inflection points (../pair_table.cpp:463)
WARNING: 43814 of 50000 distance values in table 1e-06 with relative error
WARNING:  over Vash_22 to re-computed values (../pair_table.cpp:471)

timestep	0.001   #1.0 fs

thermo		500         # intervalo para mostrar output instantaneos.

neighbor	2.0 bin
neigh_modify	every 8 delay 0 check yes

restart		1000 BaO-nvt.T2100

#fix		ensemble all nve
#fix		ensemble all nvt temp 300 300 0.1 iso 0.0 0.0 0.5 drag 2.0

#fix    ensemble all nvt temp 2100 2100 0.1

#fix    ensemble all nvt temp 3500 3500 0.05

# mudanca no ensemble NPT
fix ensemble all npt temp 500.0 500.0 1.0 iso 0.0 0.0 1000.0

run		2000000
Generated 0 of 1 mixed pair_coeff terms from geometric mixing rule
Neighbor list info ...
  update every 8 steps, delay 0 steps, check yes
  max neighbors/atom: 2000, page size: 100000
  master list distance cutoff = 11
  ghost atom cutoff = 11
  binsize = 5.5, bins = 21 21 21
  1 neighbor lists, perpetual/occasional/extra = 1 0 0
  (1) pair table, perpetual
      attributes: half, newton on
      pair build: half/bin/atomonly/newton
      stencil: half/bin/3d
      bin: standard
Per MPI rank memory allocation (min/avg/max) = 8.384 | 9.056 | 9.533 Mbytes
   Step          Temp          E_pair         E_mol          TotEng         Press          Volume    
         0   500           -243821.04      0             -239684.78      2936.8167      1359662.5    
       500   255.94097     -241716.52      0             -239599.25      12285.516      1359664.4    
      1000   262.04736     -241646.81      0             -239479.02      12726.511      1359670.2    
      1500   278.01424     -241640.08      0             -239340.2       12909.488      1359679.9    
      2000   282.36638     -241524.24      0             -239188.36      13498.021      1359693.8    
      2500   294.21699     -241459.39      0             -239025.47      13890.346      1359711.8    
      3000   304.0802      -241368.7       0             -238853.19      14426.727      1359734.2    
      3500   315.98249     -241286.53      0             -238672.56      14903.204      1359761.2    
      4000   328.82413     -241204.8       0             -238484.6       15414.914      1359792.8    
      4500   340.70496     -241108.79      0             -238290.3       15863.958      1359829.3    
      5000   353.70687     -241016.63      0             -238090.59      16446.545      1359870.7    
      5500   364.52825     -240902.08      0             -237886.52      17018.534      1359917.3    
      6000   377.96368     -240805.99      0             -237679.27      17570.045      1359969.3    
      6500   389.5916      -240693.1       0             -237470.2       18175.921      1360026.7    
      7000   404.77435     -240609.03      0             -237260.53      18655.889      1360089.8    
      7500   418.4964      -240514.02      0             -237052         19125.522      1360158.8    
      8000   430.77734     -240409.89      0             -236846.27      19639.412      1360233.8    
      8500   442.7366      -240307.95      0             -236645.4       20248.193      1360315      
      9000   452.68959     -240196.51      0             -236451.63      20763.568      1360402.5    
      9500   465.02904     -240114.3       0             -236267.34      21179.373      1360496.4    
     10000   476.23922     -240035.11      0             -236095.42      21625.409      1360597      
     10500   486.68938     -239965.22      0             -235939.08      22045.608      1360704.3    
     11000   492.2494      -239874.36      0             -235802.22      22367.52       1360818.4    
     11500   502.27109     -239845.01      0             -235689.96      22515.579      1360939.4    
     12000   507.61045     -239807.04      0             -235607.82      22692.484      1361067.4    
     12500   510.89223     -239788.69      0             -235562.32      22728.31       1361202.3    
     13000   511.46781     -239791.47      0             -235560.34      22685.754      1361344.2    
     13500   507.98976     -239803.33      0             -235600.98      22548.626      1361493      
     14000   504.21913     -239840.77      0             -235669.61      22238.785      1361648.6    
     14500   498.03551     -239864.61      0             -235744.6       21954.113      1361810.9    
     15000   495.76708     -239908.74      0             -235807.5       21671.673      1361979.6    
     15500   491.61909     -239913.52      0             -235846.59      21486.068      1362154.7    
     16000   490.97871     -239916.77      0             -235855.14      21470.674      1362336.1    
     16500   493.34371     -239912.46      0             -235831.26      21409.713      1362523.5    
     17000   496.16502     -239887.14      0             -235782.61      21396.457      1362716.9    
     17500   500.41744     -239863.12      0             -235723.41      21496.225      1362916.2    
     18000   504.43235     -239842.13      0             -235669.21      21525.19       1363121.3    
     18500   506.27004     -239820.13      0             -235632         21512.497      1363332.2    
     19000   506.16162     -239806.98      0             -235619.74      21464.591      1363548.5    
     19500   506.39956     -239823.8       0             -235634.6       21277.325      1363770.3    
     20000   504.21463     -239843.18      0             -235672.06      21008.258      1363997.2    
     20500   501.11841     -239867.07      0             -235721.56      20849.805      1364229.1    
     21000   498.72214     -239894.92      0             -235769.23      20556.959      1364465.7    
     21500   494.84716     -239897.49      0             -235803.86      20473.064      1364706.8    
     22000   493.46105     -239900.42      0             -235818.26      20199.878      1364952      
     22500   494.34852     -239898.67      0             -235809.16      20196.27       1365201.1    
     23000   493.58948     -239862.22      0             -235779         20256.217      1365453.9    
     23500   499.20555     -239866.01      0             -235736.33      20171.421      1365710.2    
     24000   499.46855     -239824.54      0             -235692.68      20240.4        1365969.7    
     24500   504.81867     -239834.41      0             -235658.28      20031.28       1366232.1    
     25000   507.75643     -239841.79      0             -235641.37      19927.317      1366497.3    
     25500   506.21648     -239832.83      0             -235645.14      19791.596      1366765      
     26000   504.75234     -239844.24      0             -235668.67      19654.938      1367034.9    
     26500   501.33104     -239852.32      0             -235705.05      19419.481      1367306.7    
     27000   498.54789     -239868.78      0             -235744.53      19192.843      1367580      
     27500   497.10428     -239889.43      0             -235777.12      18933.071      1367854.5    
     28000   493.5673      -239878.24      0             -235795.19      18827.56       1368130      
     28500   496.01002     -239897.58      0             -235794.32      18623.532      1368406.1    
     29000   496.28191     -239880.17      0             -235774.67      18626.041      1368682.6    
     29500   500.01931     -239878         0             -235741.58      18502.16       1368959.2    
     30000   502.57795     -239861.35      0             -235703.76      18501.251      1369235.8    
     30500   503.23344     -239834.18      0             -235671.17      18483.567      1369512      
     31000   503.17108     -239813.43      0             -235650.94      18503.302      1369787.7    
     31500   504.46812     -239820.81      0             -235647.58      18393          1370062.7    
     32000   505.46909     -239843.18      0             -235661.67      18111.668      1370336.7    
     32500   503.06647     -239850.85      0             -235689.22      17881.813      1370609.7    
     33000   500.36102     -239862.09      0             -235722.85      17715.323      1370881.3    
     33500   498.17746     -239874.56      0             -235753.38      17444.816      1371151.3    
     34000   495.92669     -239875.85      0             -235773.28      17323.492      1371419.6    
     34500   497.02689     -239889.32      0             -235777.65      17123.016      1371686.1    
     35000   498.90419     -239892.5       0             -235765.3       17028.974      1371950.6    
     35500   499.59121     -239871.92      0             -235739.05      16999.918      1372212.9    
     36000   501.53528     -239855.03      0             -235706.07      16981.561      1372473.2    
     36500   500.36211     -239813.62      0             -235674.37      16971.5        1372731.2    
     37000   505.90907     -239836.81      0             -235651.67      16935.159      1372987.1    
     37500   501.68864     -239793.68      0             -235643.45      16910.156      1373240.6    
     38000   502.87965     -239810.97      0             -235650.89      16800.219      1373492      
     38500   502.49674     -239828.83      0             -235671.91      16497.906      1373741      
     39000   500.65857     -239842.73      0             -235701.03      16328.12       1373987.7    
     39500   497.64681     -239846.93      0             -235730.13      16143.07       1374232      
     40000   496.88542     -239861.78      0             -235751.28      16031.772      1374474.1    
     40500   495.10501     -239855.62      0             -235759.86      15938.143      1374713.8    
     41000   495.32336     -239850.91      0             -235753.34      15766.058      1374951.2    
     41500   499.21666     -239862.75      0             -235732.97      15691.475      1375186.3    
     42000   497.77516     -239822.09      0             -235704.23      15698.171      1375419.3    
     42500   502.62421     -239832.29      0             -235674.32      15574.537      1375650.3    
     43000   503.29823     -239814.01      0             -235650.47      15608.443      1375879.2    
     43500   502.19561     -239792.62      0             -235638.2       15573.903      1376106.2    
     44000   502.64484     -239798.13      0             -235639.99      15451.647      1376331.4    
     44500   502.18266     -239809.51      0             -235655.19      15300.243      1376554.9    
     45000   500.8121      -239822.75      0             -235679.77      15113.526      1376776.6    
     45500   500.15463     -239844.28      0             -235706.74      14909.134      1376996.8    
     46000   496.50579     -239836.49      0             -235729.13      14833.666      1377215.4    
     46500   495.51361     -239839.95      0             -235740.8       14638.482      1377432.4    
     47000   497.36741     -239853.75      0             -235739.27      14557.03       1377648.1    
     47500   496.14983     -239828.83      0             -235724.42      14501.068      1377862.4    
     48000   498.69556     -239825.49      0             -235700.02      14565.024      1378075.4    
     48500   501.79879     -239823.21      0             -235672.07      14447.316      1378287.3    
     49000   501.2534      -239794.38      0             -235647.75      14436.698      1378498.2    
     49500   505.33556     -239812.86      0             -235632.47      14262.908      1378708      
     50000   504.69107     -239804.79      0             -235629.73      14187.25       1378917      
     50500   502.35632     -239795.69      0             -235639.94      14210.612      1379125.2    
     51000   498.88613     -239787.02      0             -235659.98      14115.925      1379332.7    
     51500   499.2721      -239814.72      0             -235684.48      13789.536      1379539.4    
     52000   497.90573     -239825.73      0             -235706.79      13671.881      1379745.5    
     52500   498.03967     -239841.08      0             -235721.04      13536.182      1379950.9    
     53000   497.28373     -239837.11      0             -235723.32      13421.138      1380155.7    
     53500   498.10177     -239833.69      0             -235713.13      13344.425      1380360      
     54000   497.94998     -239811.6       0             -235692.3       13414.295      1380563.7    
     54500   502.02836     -239819.19      0             -235666.15      13215.523      1380767      
     55000   503.86201     -239809.57      0             -235641.36      13301.422      1380969.9    
     55500   499.87692     -239759.15      0             -235623.91      13504.231      1381172.5    
     56000   503.34314     -239781.42      0             -235617.51      13328.456      1381374.7    
     56500   501.0122      -239768.2       0             -235623.57      13215.78       1381576.7    
     57000   501.27242     -239787.34      0             -235640.55      13008.448      1381778.5    
     57500   500.84129     -239806.6       0             -235663.38      12819.718      1381980      
     58000   497.92232     -239804.82      0             -235685.75      12691.012      1382181.2    
     58500   497.16825     -239814.59      0             -235701.75      12572.661      1382382.2    
     59000   495.37946     -239805.45      0             -235707.41      12571.66       1382582.9    
     59500   497.83746     -239819.06      0             -235700.69      12288.751      1382783.3    
     60000   497.83017     -239801.59      0             -235683.28      12324.309      1382983.5    
     60500   500.83532     -239802.38      0             -235659.21      12262.486      1383183.4    
     61000   500.94583     -239778.93      0             -235634.85      12301.141      1383383.1    
     61500   503.04305     -239777.36      0             -235615.92      12215.04       1383582.6    
     62000   502.43626     -239762.92      0             -235606.5       12239.92       1383781.8    
     62500   501.20048     -239754.47      0             -235608.28      12160.461      1383980.9    
     63000   500.15014     -239757.93      0             -235620.43      12077.693      1384179.8    
     63500   499.81022     -239774.42      0             -235639.73      11848.154      1384378.4    
     64000   496.781       -239770.17      0             -235660.54      11844.354      1384576.7    
     64500   497.98915     -239796.81      0             -235677.19      11509.256      1384774.8    
     65000   497.77631     -239803.26      0             -235685.39      11433.298      1384972.5    
     65500   498.1173      -239803.48      0             -235682.79      11434.678      1385169.8    
     66000   497.40292     -239784.33      0             -235669.55      11318.429      1385366.8    
     66500   498.74013     -239774.7       0             -235648.86      11254.836      1385563.3    
     67000   500.73681     -239767.86      0             -235625.51      11212.404      1385759.5    
     67500   501.93305     -239757.53      0             -235605.28      11154.678      1385955.3    
     68000   503.74832     -239760.28      0             -235593.02      11252.496      1386150.7    
     68500   504.07277     -239761.13      0             -235591.18      11053.651      1386345.6    
     69000   500.95979     -239744.13      0             -235599.93      11088.031      1386540.1    
     69500   501.7264      -239767.07      0             -235616.53      10851.092      1386734.2    
     70000   501.1336      -239781.67      0             -235636.03      10672.269      1386927.7    
     70500   497.48519     -239768.74      0             -235653.28      10574.407      1387120.7    
     71000   497.03745     -239775.44      0             -235663.69      10526.265      1387313      
     71500   498.73731     -239789.93      0             -235664.11      10311.975      1387504.8    
     72000   496.60624     -239762.68      0             -235654.5       10405.934      1387695.8    
     72500   499.08181     -239765.29      0             -235636.62      10325.134      1387886.2    
     73000   500.95101     -239758.84      0             -235614.71      10345.391      1388076      
     73500   500.2564      -239732.35      0             -235593.97      10328.148      1388265      
     74000   502.09109     -239732.94      0             -235579.38      10266.415      1388453.4    
     74500   501.58146     -239723.29      0             -235573.94      10245.702      1388641.1    
     75000   502.63533     -239736.88      0             -235578.82      10076.047      1388828      
     75500   500.07126     -239729.3       0             -235592.45      9949.0146      1389014.2    
     76000   500.78363     -239753.38      0             -235610.64      9758.4484      1389199.7    
     76500   498.52654     -239752.48      0             -235628.41      9642.9626      1389384.3    
     77000   497.71429     -239758.16      0             -235640.81      9585.4219      1389568.1    
     77500   496.44708     -239751.29      0             -235644.42      9569.8319      1389751      
     78000   498.42599     -239761.18      0             -235637.94      9439.9366      1389933      
     78500   498.99333     -239750.63      0             -235622.7       9382.6006      1390114      
     79000   499.50737     -239734.25      0             -235602.07      9426.8555      1390294.1    
     79500   502.65134     -239739.29      0             -235581.1       9303.683       1390473.4    
     80000   501.74725     -239715.57      0             -235564.85      9357.2763      1390651.6    
     80500   503.14375     -239718.99      0             -235556.73      9290.6127      1390829      
     81000   502.56815     -239716.01      0             -235558.5       9191.3665      1391005.4    
     81500   500.91071     -239713.25      0             -235569.46      9114.1481      1391180.9    
     82000   500.91886     -239730.01      0             -235586.15      8982.7921      1391355.5    
     82500   498.54627     -239728.64      0             -235604.4       8918.6595      1391529      
     83000   498.04435     -239738.76      0             -235618.68      8769.9615      1391701.5    
     83500   496.45417     -239731.61      0             -235624.68      8705.5638      1391873      
     84000   496.28567     -239726.26      0             -235620.73      8630.7775      1392043.5    
     84500   500.72635     -239749.7       0             -235607.43      8492.241       1392212.9    
     85000   500.36929     -239727.29      0             -235587.97      8490.3508      1392381.2    
     85500   500.78291     -239709.76      0             -235567.02      8542.8718      1392548.5    
     86000   502.51188     -239706.75      0             -235549.71      8459.1913      1392714.8    
     86500   502.39818     -239696         0             -235539.9       8499.042       1392880.1    
     87000   501.81554     -239690.61      0             -235539.33      8405.8699      1393044.4    
     87500   502.86615     -239708.02      0             -235548.05      8272.2835      1393207.7    
     88000   499.40014     -239694.84      0             -235563.55      8277.7885      1393369.9    
     88500   499.03599     -239709.12      0             -235580.83      8125.4709      1393531.1    
     89000   496.36777     -239701.53      0             -235595.31      8042.4217      1393691.3    
     89500   497.88554     -239721.68      0             -235602.91      7855.1937      1393850.4    
     90000   497.45717     -239716.86      0             -235601.63      7823.9604      1394008.4    
     90500   495.88458     -239693.48      0             -235591.26      7876.6656      1394165.3    
     91000   497.31332     -239687.89      0             -235573.85      7834.1815      1394321.2    
     91500   500.73814     -239696.03      0             -235553.66      7850.0176      1394476      
     92000   502.40768     -239691.53      0             -235535.35      7806.6277      1394629.8    
     92500   501.44571     -239671.88      0             -235523.66      7810.5229      1394782.6    
     93000   501.52187     -239669.51      0             -235520.66      7654.5915      1394934.5    
     93500   504.57483     -239700.78      0             -235526.67      7554.4453      1395085.3    
     94000   501.81864     -239691.03      0             -235539.73      7563.9063      1395235.2    
     94500   501.05437     -239701.26      0             -235556.27      7327.8777      1395384.1    
     95000   498.91574     -239698.79      0             -235571.5       7174.0222      1395532      
     95500   497.82802     -239699.59      0             -235581.3       7185.8097      1395678.8    
     96000   497.25054     -239696.34      0             -235582.82      7170.338       1395824.7    
     96500   497.51279     -239691.17      0             -235575.48      7156.9664      1395969.5    
     97000   499.23316     -239690.49      0             -235560.58      7001.5347      1396113.4    
     97500   498.78805     -239668.05      0             -235541.82      7168.935       1396256.2    
     98000   500.88078     -239666.87      0             -235523.32      7112.531       1396398.2    
     98500   501.48828     -239658.17      0             -235509.59      7118.4312      1396539.2    
     99000   500.99746     -239648.29      0             -235503.77      7088.7787      1396679.3    
     99500   501.81369     -239658.02      0             -235506.76      6964.3774      1396818.5    
    100000   501.98126     -239670.17      0             -235517.52      6823.8093      1396956.8    
    100500   501.00719     -239677.46      0             -235532.87      6803.8129      1397094.3    
    101000   498.77992     -239674.66      0             -235548.49      6675.658       1397230.8    
    101500   497.07224     -239672.18      0             -235560.14      6624.8402      1397366.4    
    102000   498.17744     -239685.69      0             -235564.51      6492.7864      1397501.1    
    102500   497.41741     -239675.09      0             -235560.19      6472.9885      1397634.9    
    103000   500.58414     -239688.8       0             -235547.71      6396.1704      1397767.9    
    103500   497.58169     -239646.21      0             -235529.95      6564.0315      1397899.9    
    104000   500.10399     -239648.28      0             -235511.16      6483.4005      1398031.1    
    104500   502.3213      -239651.28      0             -235495.82      6358.7326      1398161.4    
    105000   502.03953     -239640.79      0             -235487.66      6380.0316      1398291      
    105500   502.73293     -239646.99      0             -235488.12      6410.2513      1398419.7    
    106000   501.3685      -239644.27      0             -235496.69      6359.3595      1398547.7    
    106500   499.95587     -239646.9       0             -235511         6179.9926      1398674.8    
    107000   497.6689      -239643.94      0             -235526.97      6185.8022      1398801.2    
    107500   499.17766     -239669.78      0             -235540.32      5903.1805      1398926.8    
    108000   497.69406     -239664.33      0             -235547.14      5965.5048      1399051.5    
    108500   498.49757     -239668.89      0             -235545.06      5909.7194      1399175.5    
    109000   498.43582     -239657.77      0             -235534.45      5752.0565      1399298.6    
    109500   499.69791     -239651.57      0             -235517.81      5887.0948      1399421      
    110000   499.81762     -239633.34      0             -235498.59      5847.3351      1399542.6    
    110500   502.61971     -239639.72      0             -235481.79      5880.1441      1399663.5    
    111000   502.93074     -239631.74      0             -235471.24      5758.2321      1399783.7    
    111500   502.37888     -239625.59      0             -235469.65      5717.3277      1399903.1    
    112000   500.66631     -239618.7       0             -235476.93      5679.4512      1400021.9    
    112500   500.3446      -239629.76      0             -235490.65      5717.4947      1400140      
    113000   498.01129     -239626.87      0             -235507.07      5696.2738      1400257.4    
    113500   498.50626     -239645.27      0             -235521.36      5441.8549      1400374.1    
    114000   497.83172     -239647.95      0             -235529.63      5348.0372      1400490.1    
    114500   497.58498     -239645.63      0             -235529.35      5379.0928      1400605.4    
    115000   497.71765     -239637.96      0             -235520.58      5347.8365      1400719.9    
    115500   501.02775     -239649.81      0             -235505.05      5177.2647      1400833.8    
    116000   501.36667     -239634.05      0             -235486.48      5215.3679      1400947      
    116500   501.38433     -239617.1       0             -235469.39      5276.7915      1401059.6    
    117000   499.91474     -239593.4       0             -235457.84      5429.0502      1401171.5    
    117500   501.27178     -239600.93      0             -235454.15      5334.9544      1401282.8    
    118000   500.26156     -239597.65      0             -235459.22      5295.3643      1401393.5    
    118500   501.31833     -239618.39      0             -235471.22      5192.8902      1401503.6    
    119000   501.28606     -239633.75      0             -235486.85      5059.0174      1401613.1    
    119500   498.35374     -239624.27      0             -235501.63      5115.0022      1401722      
    120000   499.06666     -239639.89      0             -235511.35      4941.9325      1401830.3    
    120500   498.79557     -239639.37      0             -235513.07      4795.3135      1401937.9    
    121000   496.61263     -239614.51      0             -235506.27      4985.6855      1402044.9    
    121500   499.02765     -239620.48      0             -235492.26      4844.333       1402151.3    
    122000   499.52271     -239607         0             -235474.69      4779.6405      1402257.1    
    122500   500.32327     -239596.65      0             -235457.71      4998.5691      1402362.3    
    123000   502.16058     -239599.76      0             -235445.63      4887.9875      1402466.9    
    123500   500.07394     -239577.91      0             -235441.03      5032.7314      1402571.1    
    124000   502.40415     -239600.64      0             -235444.49      4809.4989      1402674.6    
    124500   503.5232      -239619.94      0             -235454.54      4543.2031      1402777.7    
    125000   499.63975     -239601.82      0             -235468.54      4683.3417      1402880.2    
    125500   499.2695      -239612.58      0             -235482.36      4552.1738      1402982.1    
    126000   498.81124     -239618.57      0             -235492.15      4482.3166      1403083.5    
    126500   498.471       -239618.67      0             -235495.06      4503.9907      1403184.3    
    127000   499.1906      -239619.98      0             -235490.42      4419.547       1403284.6    
    127500   499.89844     -239614.32      0             -235478.9       4437.1486      1403384.3    
    128000   499.08253     -239591.89      0             -235463.22      4411.5884      1403483.4    
    128500   500.497       -239587.65      0             -235447.28      4390.1745      1403582      
    129000   498.75014     -239560.84      0             -235434.92      4590.1651      1403680.1    
    129500   504.31222     -239600.68      0             -235428.75      4385.5304      1403777.8    
    130000   501.27384     -239577.13      0             -235430.33      4458.7463      1403874.9    
    130500   500.1381      -239575.93      0             -235438.53      4365.5435      1403971.5    
    131000   500.32459     -239590.2       0             -235451.25      4239.7422      1404067.7    
    131500   498.94027     -239592.14      0             -235464.65      4206.5176      1404163.4    
    132000   499.11491     -239603.92      0             -235474.99      4139.5145      1404258.6    
    132500   497.86642     -239597.97      0             -235479.36      4045.1236      1404353.2    
    133000   496.90741     -239587.12      0             -235476.45      4086.477       1404447.4    
    133500   499.89951     -239601.6       0             -235466.17      3965.989       1404541      
    134000   498.85885     -239578.57      0             -235451.75      4016.1498      1404634.1    
    134500   502.44256     -239592.75      0             -235436.28      3940.0524      1404726.8    
    135000   503.07372     -239585.13      0             -235423.44      3917.8175      1404819      
    135500   503.33798     -239579.76      0             -235415.89      3947.0663      1404910.7    
    136000   504.246       -239586.81      0             -235415.42      3882.1727      1405001.9    
    136500   502.92732     -239582.54      0             -235422.07      3836.612       1405092.7    
    137000   500.35184     -239572.96      0             -235433.79      3923.4036      1405183.1    
    137500   499.4222      -239578.33      0             -235446.85      3779.5551      1405273      
    138000   500.07172     -239594.96      0             -235458.11      3685.0156      1405362.4    
    138500   498.53635     -239588.6       0             -235464.44      3627.3267      1405451.4    
    139000   497.64954     -239580.79      0             -235463.97      3613.0154      1405539.9    
    139500   497.14904     -239569         0             -235456.32      3675.1466      1405627.8    
    140000   499.6166      -239576.25      0             -235443.16      3647.3307      1405715.4    
    140500   499.4356      -239558.84      0             -235427.25      3743.9575      1405802.4    
    141000   501.86413     -239564.32      0             -235412.64      3637.4542      1405889      
    141500   502.59925     -239560.6       0             -235402.83      3657.3189      1405975.2    
    142000   499.81419     -239534.84      0             -235400.12      3656.3294      1406061      
    142500   499.20274     -239534.61      0             -235404.94      3686.2233      1406146.4    
    143000   500.76444     -239558.36      0             -235415.78      3551.3225      1406231.3    
    143500   500.06071     -239566.23      0             -235429.47      3400.4449      1406315.9    
    144000   498.03374     -239561.98      0             -235441.99      3416.2027      1406400      
    144500   499.59265     -239583.19      0             -235450.3       3280.1267      1406483.7    
    145000   498.55759     -239576.3       0             -235451.97      3279.5107      1406566.9    
    145500   498.95631     -239573.75      0             -235446.12      3189.3735      1406649.6    
    146000   497.62686     -239550.94      0             -235434.31      3319.7362      1406731.9    
    146500   499.18082     -239548.34      0             -235418.86      3262.7576      1406813.8    
    147000   502.97669     -239564.66      0             -235403.78      3276.5265      1406895.3    
    147500   501.50946     -239541.32      0             -235392.57      3270.2434      1406976.3    
    148000   501.79877     -239539.17      0             -235388.03      3233.7474      1407057      
    148500   501.27115     -239537.72      0             -235390.95      3250.0817      1407137.3    
    149000   500.84828     -239543.43      0             -235400.16      3132.3176      1407217.1    
    149500   498.03812     -239532.92      0             -235412.89      3190.9346      1407296.6    
    150000   498.3361      -239548.11      0             -235425.62      3104.3266      1407375.7    
    150500   500.4322      -239574.74      0             -235434.91      2883.8916      1407454.3    
    151000   499.36599     -239569.19      0             -235438.17      2981.4176      1407532.5    
    151500   500.00535     -239570.57      0             -235434.27      2760.6963      1407610.3    
    152000   498.1047      -239544.62      0             -235424.04      2914.1962      1407687.7    
    152500   500.81528     -239552.73      0             -235409.72      2877.3325      1407764.6    
    153000   499.54616     -239527.49      0             -235394.99      3012.1298      1407841.1    
    153500   502.74837     -239541.92      0             -235382.92      2862.5472      1407917.2    
    154000   501.52536     -239525.58      0             -235376.7       3019.9976      1407993      
    154500   502.19979     -239531.89      0             -235377.43      2982.1723      1408068.4    
    155000   500.83565     -239528         0             -235384.83      2917.7666      1408143.4    
    155500   500.34288     -239535.9       0             -235396.8       2771.1568      1408218.1    
    156000   501.89356     -239561.78      0             -235409.85      2631.6005      1408292.4    
    156500   499.33314     -239551.32      0             -235420.58      2652.4361      1408366.4    
    157000   498.58235     -239550.55      0             -235426.02      2594.8373      1408439.9    
    157500   497.78656     -239542.44      0             -235424.49      2563.3346      1408513      
    158000   499.29703     -239546.3       0             -235415.86      2633.1254      1408585.6    
    158500   498.03299     -239522.19      0             -235402.2       2773.5769      1408657.9    
    159000   501.5175      -239535.73      0             -235386.92      2627.3681      1408729.9    
    159500   498.04301     -239494         0             -235373.93      2817.6793      1408801.4    
    160000   499.35289     -239496.88      0             -235365.97      2743.8262      1408872.6    
    160500   501.59004     -239514.13      0             -235364.71      2600.9467      1408943.5    
    161000   502.1333      -239524.28      0             -235370.37      2609.3067      1409014      
    161500   499.46167     -239512.77      0             -235380.96      2618.2062      1409084.1    
    162000   500.48142     -239533.61      0             -235393.37      2407.8532      1409153.9    
    162500   499.48646     -239536.45      0             -235404.44      2376.4716      1409223.3    
    163000   495.47183     -239509.88      0             -235411.08      2467.8992      1409292.3    
    163500   495.41222     -239509.61      0             -235411.3       2406.4117      1409360.9    
    164000   498.26531     -239526.89      0             -235404.98      2295.6644      1409429.1    
    164500   499.26771     -239523.37      0             -235393.17      2262.95        1409497      
    165000   499.34621     -239509.81      0             -235378.96      2354.5208      1409564.4    
    165500   500.36548     -239505.25      0             -235365.97      2350.8296      1409631.5    
    166000   501.37304     -239504.87      0             -235357.25      2380.2987      1409698.2    
    166500   501.8049      -239505.47      0             -235354.28      2331.3295      1409764.6    
    167000   501.04398     -239503.02      0             -235358.12      2300.3742      1409830.6    
    167500   500.77799     -239509.66      0             -235366.96      2252.1654      1409896.3    
    168000   500.89539     -239522.38      0             -235378.72      2177.7604      1409961.7    
    168500   498.57027     -239514.35      0             -235389.92      2162.2125      1410026.7    
    169000   498.71063     -239523.21      0             -235397.62      2127.8489      1410091.4    
    169500   496.97575     -239510.59      0             -235399.34      2179.9161      1410155.7    
    170000   499.24428     -239524.71      0             -235394.7       1987.8503      1410219.6    
    170500   498.99719     -239512.22      0             -235384.26      1972.1728      1410283.2    
    171000   500.4075      -239510.38      0             -235370.75      2086.0269      1410346.4    
    171500   499.49226     -239489.54      0             -235357.48      2090.772       1410409.2    
    172000   501.13316     -239493.17      0             -235347.54      2036.2988      1410471.7    
    172500   502.29527     -239498.65      0             -235343.4       2063.1287      1410533.9    
    173000   501.72077     -239496.3       0             -235345.81      2008.0469      1410595.8    
    173500   501.96303     -239506.23      0             -235353.73      1958.0828      1410657.3    
    174000   501.40467     -239513.08      0             -235365.2       1871.4286      1410718.5    
    174500   500.97435     -239521.46      0             -235377.13      1751.6114      1410779.3    
    175000   500.13544     -239523.01      0             -235385.63      1775.7824      1410839.8    
    175500   497.15002     -239501.9       0             -235389.22      1934.3928      1410899.9    
    176000   498.54442     -239510.6       0             -235386.38      1818.7349      1410959.7    
    176500   497.65647     -239494.32      0             -235377.45      1772.3445      1411019.1    
    177000   499.19715     -239494.07      0             -235364.46      1840.8416      1411078.1    
    177500   500.08085     -239488.04      0             -235351.11      1909.6296      1411136.8    
    178000   500.57719     -239481.32      0             -235340.28      1865.9751      1411195.2    
    178500   501.14819     -239479.9       0             -235334.14      1919.8531      1411253.3    
    179000   502.10637     -239487.97      0             -235334.29      1790.8253      1411311.1    
    179500   500.3302      -239479.52      0             -235340.53      1807.257       1411368.6    
    180000   500.32967     -239490.13      0             -235351.14      1701.1169      1411425.8    
    180500   500.5664      -239504.14      0             -235363.19      1698.4026      1411482.6    
    181000   499.99539     -239509.46      0             -235373.24      1698.2853      1411539.1    
    181500   497.74667     -239495.89      0             -235378.27      1572.9084      1411595.3    
    182000   496.75553     -239486.8       0             -235377.38      1601.9423      1411651.1    
    182500   500.34278     -239509.33      0             -235370.23      1443.1512      1411706.6    
    183000   502.34613     -239514.02      0             -235358.36      1426.419       1411761.7    
    183500   498.28558     -239467.08      0             -235345         1734.3137      1411816.5    
    184000   500.60595     -239474.47      0             -235333.19      1661.4594      1411871      
    184500   502.60728     -239483.56      0             -235325.73      1588.3679      1411925.2    
    185000   502.06975     -239478.1       0             -235324.72      1624.5131      1411979.1    
    185500   503.27117     -239493.1       0             -235329.78      1442.9611      1412032.6    
    186000   500.60672     -239480.94      0             -235339.66      1631.6471      1412085.9    
    186500   498.59584     -239476.4       0             -235351.76      1532.2529      1412138.9    
    187000   498.70808     -239487.96      0             -235362.38      1383.0611      1412191.5    
    187500   497.59302     -239485.04      0             -235368.69      1400.5259      1412243.9    
    188000   497.46481     -239484.29      0             -235369         1399.6439      1412295.8    
    188500   500.02287     -239499.41      0             -235362.96      1168.2569      1412347.5    
    189000   500.96039     -239496.35      0             -235352.14      1271.0017      1412398.8    
    189500   501.85286     -239490.68      0             -235339.1       1222.8812      1412449.8    
    190000   501.40515     -239474.55      0             -235326.67      1377.8377      1412500.5    
    190500   500.35049     -239457.23      0             -235318.07      1576.181       1412550.9    
    191000   504.12598     -239485.41      0             -235315.01      1310.4134      1412601      
    191500   501.83191     -239469.8       0             -235318.39      1380.8407      1412650.9    
    192000   500.22623     -239465.14      0             -235327.01      1402.7713      1412700.4    
    192500   500.2941      -239477.57      0             -235338.87      1295.5364      1412749.7    
    193000   496.95699     -239461.36      0             -235350.27      1230.4861      1412798.7    
    193500   497.16183     -239470.85      0             -235358.07      1225.7707      1412847.3    
    194000   499.75291     -239494.39      0             -235360.17      1045.2295      1412895.7    
    194500   499.63382     -239489.4       0             -235356.17      1096.3974      1412943.7    
    195000   499.11907     -239475.69      0             -235346.71      1234.4669      1412991.3    
    195500   499.61393     -239467.27      0             -235334.2       1101.0719      1413038.7    
    196000   498.13165     -239442.22      0             -235321.41      1258.0764      1413085.7    
    196500   501.57096     -239461         0             -235311.74      1221.5413      1413132.5    
    197000   502.03947     -239460.48      0             -235307.34      1153.7087      1413178.9    
    197500   501.79686     -239460.8       0             -235309.68      1239.2715      1413225.1    
    198000   499.4437      -239449.03      0             -235317.38      1262.7141      1413270.9    
    198500   498.94442     -239455.87      0             -235328.34      1076.9771      1413316.5    
    199000   498.69145     -239465.15      0             -235339.71      1034.9286      1413361.8    
    199500   499.08412     -239476.75      0             -235348.07      963.30774      1413406.8    
    200000   499.1405      -239480.6       0             -235351.45      906.43711      1413451.4    
    200500   498.22715     -239470.29      0             -235348.69      914.35339      1413495.7    
    201000   500.01485     -239476.62      0             -235340.24      969.74156      1413539.8    
    201500   499.11498     -239457.28      0             -235328.34      965.69901      1413583.4    
    202000   503.02551     -239477.05      0             -235315.76      845.56932      1413626.8    
    202500   502.10737     -239459.26      0             -235305.56      971.01983      1413669.9    
    203000   501.83255     -239451.75      0             -235300.33      983.59723      1413712.8    
    203500   501.24626     -239447.94      0             -235301.37      1097.5727      1413755.4    
    204000   502.15573     -239462.47      0             -235308.37      1052.5013      1413797.7    
    204500   500.59029     -239460.22      0             -235319.08      927.04321      1413839.7    
    205000   500.16183     -239467.95      0             -235330.35      928.52501      1413881.5    
    205500   497.11412     -239451.84      0             -235339.46      821.49478      1413923      
    206000   497.926       -239462.76      0             -235343.66      824.74014      1413964.2    
    206500   497.85362     -239460.27      0             -235341.77      841.8496       1414005.1    
    207000   499.06295     -239463         0             -235334.49      830.09242      1414045.6    
    207500   499.98202     -239459.37      0             -235323.26      904.90093      1414085.9    
    208000   499.6602      -239444.38      0             -235310.93      883.55519      1414125.9    
    208500   500.38173     -239440.07      0             -235300.65      943.0153       1414165.6    
    209000   500.75253     -239437.2       0             -235294.71      893.74328      1414205.1    
    209500   500.01274     -239430.87      0             -235294.5       841.69954      1414244.3    
    210000   500.91483     -239443.61      0             -235299.78      873.61233      1414283.3    
    210500   499.67142     -239442.81      0             -235309.26      774.9555       1414322      
    211000   497.33425     -239434.43      0             -235320.23      787.46689      1414360.4    
    211500   496.52888     -239437.09      0             -235329.54      823.14884      1414398.5    
    212000   497.97088     -239454.25      0             -235334.78      768.50599      1414436.3    
    212500   499.26732     -239464.71      0             -235334.51      650.73096      1414473.9    
    213000   499.16607     -239458.01      0             -235328.65      672.82491      1414511.1    
    213500   500.30563     -239457.42      0             -235318.63      611.81625      1414548.1    
    214000   499.69816     -239440.38      0             -235306.61      785.59614      1414584.8    
    214500   501.33375     -239443.05      0             -235295.76      672.80441      1414621.2    
    215000   504.10626     -239458.99      0             -235288.76      555.72904      1414657.4    
    215500   503.20913     -239450.33      0             -235287.52      556.27731      1414693.4    
    216000   501.15025     -239437.31      0             -235291.53      665.94754      1414729.1    
    216500   501.41756     -239447.77      0             -235299.79      645.40989      1414764.5    
    217000   501.47568     -239458.75      0             -235310.28      520.38904      1414799.7    
    217500   499.34999     -239451.24      0             -235320.36      604.87002      1414834.6    
    218000   497.74424     -239444.63      0             -235327.03      599.59735      1414869.3    
    218500   500.59067     -239469.52      0             -235328.37      489.62814      1414903.7    
    219000   500.06123     -239460.68      0             -235323.91      458.62524      1414937.8    
    219500   499.33298     -239445.36      0             -235314.62      548.34222      1414971.6    
    220000   500.56931     -239444.01      0             -235303.04      652.86111      1415005.2    
    220500   501.40653     -239439.76      0             -235291.87      492.79749      1415038.5    
    221000   500.66795     -239425.78      0             -235284         613.79206      1415071.6    
    221500   501.79248     -239432.15      0             -235281.06      583.25359      1415104.5    
    222000   501.54935     -239432.49      0             -235283.42      538.00108      1415137.1    
    222500   501.55839     -239439.72      0             -235290.56      413.44105      1415169.5    
    223000   499.22447     -239430.52      0             -235300.67      467.94307      1415201.6    
    223500   497.67365     -239427.65      0             -235310.63      518.62782      1415233.5    
    224000   500.50589     -239458.79      0             -235318.35      326.40886      1415265.1    
    224500   499.31997     -239451.89      0             -235321.25      334.4666       1415296.4    
    225000   496.19163     -239423.41      0             -235318.65      517.01408      1415327.5    
    225500   498.43151     -239434.37      0             -235311.08      407.08296      1415358.3    
    226000   499.63719     -239433.58      0             -235300.32      464.06483      1415388.8    
    226500   502.49554     -239446.19      0             -235289.28      345.70952      1415419.1    
    227000   501.37824     -239428.55      0             -235280.89      485.8997       1415449.1    
    227500   500.12654     -239414.38      0             -235277.08      541.45272      1415478.9    
    228000   501.22016     -239424.97      0             -235278.61      394.29718      1415508.5    
    228500   501.02309     -239429.73      0             -235285.01      426.47348      1415537.8    
    229000   499.00956     -239422.43      0             -235294.36      504.39696      1415567      
    229500   498.95575     -239431.67      0             -235304.05      307.70317      1415595.8    
    230000   498.32625     -239434.16      0             -235311.74      288.56138      1415624.4    
    230500   498.21754     -239436.76      0             -235315.24      244.59901      1415652.8    
    231000   497.5408      -239429.77      0             -235313.85      328.27516      1415680.8    
    231500   498.28986     -239429.71      0             -235307.6       325.15992      1415708.6    
    232000   500.4216      -239437.77      0             -235298.02      287.91289      1415736.2    
    232500   501.75861     -239438.14      0             -235287.33      151.76645      1415763.5    
    233000   500.42485     -239418.02      0             -235278.25      266.88135      1415790.5    
    233500   500.31259     -239411.5       0             -235272.66      368.5558       1415817.3    
    234000   499.18941     -239401.65      0             -235272.1       352.8869       1415843.9    
    234500   501.31914     -239423.8       0             -235276.63      323.31841      1415870.3    
    235000   502.17413     -239439.36      0             -235285.11      289.21004      1415896.4    
    235500   500.07998     -239432.51      0             -235295.59      208.06707      1415922.3    
    236000   497.74998     -239422.28      0             -235304.63      211.87909      1415947.9    
    236500   497.97579     -239429.54      0             -235310.03      211.62187      1415973.3    
    237000   499.67555     -239443.75      0             -235310.18      147.16406      1415998.5    
    237500   499.49569     -239437.4       0             -235305.32      223.37953      1416023.3    
    238000   498.78286     -239422.54      0             -235296.35      156.9804       1416048      
    238500   498.53583     -239409.66      0             -235285.52      250.09016      1416072.4    
    239000   501.7545      -239426.22      0             -235275.45      221.99047      1416096.5    
    239500   501.62816     -239418.36      0             -235268.63      261.67559      1416120.5    
    240000   499.81352     -239401.57      0             -235266.85      373.15031      1416144.2    
    240500   500.00075     -239406.52      0             -235270.25      280.76434      1416167.8    
    241000   501.10414     -239423.75      0             -235278.36      241.42924      1416191.1    
    241500   501.17191     -239434.4       0             -235288.45      168.96342      1416214.2    
    242000   499.24099     -239428.3       0             -235298.32      181.60878      1416237.1    
    242500   498.83576     -239431.72      0             -235305.09      106.31874      1416259.8    
    243000   498.24667     -239428.8       0             -235307.04      73.181609      1416282.2    
    243500   499.25019     -239433.36      0             -235303.31      44.709391      1416304.4    
    244000   498.33419     -239417.2       0             -235294.72      150.83588      1416326.3    
    244500   499.90597     -239419.05      0             -235283.56      231.80867      1416348.1    
    245000   500.58483     -239413.88      0             -235272.78      76.211998      1416369.6    
    245500   501.01408     -239409.54      0             -235264.89      144.11005      1416390.9    
    246000   499.46088     -239393.65      0             -235261.85      276.35829      1416412      
    246500   502.55297     -239421.14      0             -235263.76      130.87653      1416432.9    
    247000   499.82743     -239405.8       0             -235270.97      71.140681      1416453.6    
    247500   500.39907     -239420.94      0             -235281.37      136.74689      1416474.1    
    248000   500.99536     -239436.26      0             -235291.77     -72.115705      1416494.4    
    248500   498.18369     -239420.83      0             -235299.6       28.208374      1416514.4    
    249000   498.31228     -239425.37      0             -235303.07      12.745585      1416534.2    
    249500   498.60883     -239425.77      0             -235301.02     -21.542457      1416553.8    
    250000   499.23016     -239423.74      0             -235293.85     -27.874384      1416573.2    
    250500   501.27109     -239429.94      0             -235283.16     -59.328588      1416592.4    
    251000   499.63514     -239405.31      0             -235272.07      204.34624      1416611.3    
    251500   500.76244     -239405.64      0             -235263.07      1.5771028      1416630      
    252000   502.30654     -239414         0             -235258.66      24.651425      1416648.5    
    252500   501.48061     -239407.91      0             -235259.4       44.632578      1416666.8    
    253000   500.50713     -239405.78      0             -235265.32      93.869187      1416685      
    253500   499.72613     -239408.83      0             -235274.84      90.123431      1416703      
    254000   497.39325     -239400.08      0             -235285.38      129.22719      1416720.8    
    254500   499.06388     -239422.56      0             -235294.04     -53.266896      1416738.3    
    255000   498.83596     -239425.3       0             -235298.67      83.404013      1416755.7    
    255500   499.30669     -239428.13      0             -235297.6      -34.166222      1416772.9    
    256000   498.65493     -239416.72      0             -235291.59     -4.632802       1416789.8    
    256500   500.30057     -239420.44      0             -235281.69     -53.848687      1416806.6    
    257000   500.10706     -239408.02      0             -235270.87      23.777101      1416823.1    
    257500   500.25087     -239400.32      0             -235261.99      18.804596      1416839.4    
    258000   502.78811     -239416.18      0             -235256.86     -106.49589      1416855.6    
    258500   500.7941      -239399.91      0             -235257.08      90.773995      1416871.6    
    259000   500.64458     -239403.9       0             -235262.31      31.516098      1416887.4    
    259500   499.92686     -239407.24      0             -235271.59      38.072758      1416903.1    
    260000   497.13817     -239394.36      0             -235281.78      62.392437      1416918.5    
    260500   497.34043     -239404.85      0             -235290.59      78.01428       1416933.7    
    261000   497.90356     -239414.39      0             -235295.47     -80.739296      1416948.8    
    261500   498.61752     -239420.13      0             -235295.31     -64.465672      1416963.6    
    262000   498.87417     -239416.84      0             -235289.89     -84.095722      1416978.3    
    262500   499.78612     -239414.63      0             -235280.14     -119.27465      1416992.7    
    263000   499.24382     -239399.23      0             -235269.23      68.915844      1417006.9    
    263500   500.24743     -239398.06      0             -235259.75     -103.71338      1417021      
    264000   499.72884     -239387.89      0             -235253.88      97.021822      1417034.8    
    264500   500.54417     -239393.55      0             -235252.79     -25.256927      1417048.6    
    265000   501.10373     -239402.7       0             -235257.31     -42.523046      1417062.1    
    265500   500.66792     -239408.84      0             -235267.05     -77.699477      1417075.5    
    266000   500.02188     -239415.49      0             -235279.05     -169.88129      1417088.7    
    266500   498.68802     -239414.19      0             -235288.78     -88.091147      1417101.8    
    267000   497.92892     -239412.96      0             -235293.83     -125.95839      1417114.6    
    267500   497.66889     -239410.42      0             -235293.45     -151.40661      1417127.2    
    268000   500.39568     -239425.37      0             -235285.84     -218.20368      1417139.7    
    268500   500.28328     -239407.11      0             -235268.51     -107.15477      1417152      
    269000   500.35772     -239390.07      0             -235250.85      36.587484      1417164.1    
    269500   504.14305     -239415.61      0             -235245.08     -140.63985      1417176      
    270000   500.61739     -239388.54      0             -235247.17      20.994519      1417187.8    
    270500   500.83368     -239396.67      0             -235253.51     -134.02687      1417199.4    
    271000   496.93493     -239373.03      0             -235262.12      7.762581       1417210.9    
    271500   500.32475     -239409.57      0             -235270.62     -156.65895      1417222.3    
    272000   499.0972      -239405.76      0             -235276.97     -159.16427      1417233.4    
    272500   499.37356     -239411.58      0             -235280.51     -200.08422      1417244.4    
    273000   499.43237     -239412.42      0             -235280.85     -258.43277      1417255.1    
    273500   499.65711     -239412.33      0             -235278.9      -137.2057       1417265.7    
    274000   499.34668     -239406.24      0             -235275.38     -134.74616      1417276.2    
    274500   498.7913      -239398.33      0             -235272.07     -111.81488      1417286.4    
    275000   500.60056     -239411.28      0             -235270.05     -143.84068      1417296.5    
    275500   498.29953     -239391.78      0             -235269.58     -121.81438      1417306.5    
    276000   500.12304     -239406.43      0             -235269.15     -76.192232      1417316.2    
    276500   500.82427     -239411.63      0             -235268.55     -200.44472      1417325.8    
    277000   499.83167     -239402.95      0             -235268.09      19.451969      1417335.3    
    277500   499.2687      -239398.28      0             -235268.07     -146.19978      1417344.6    
    278000   498.63629     -239393.18      0             -235268.21     -134.98058      1417353.8    
    278500   498.72894     -239394.61      0             -235268.86     -153.43663      1417362.8    
    279000   497.47211     -239385.16      0             -235269.81     -60.004122      1417371.7    
    279500   500.7314      -239412.87      0             -235270.56     -264.74534      1417380.4    
    280000   500.01037     -239407.61      0             -235271.27     -317.19619      1417388.9    
    280500   498.37689     -239394.41      0             -235271.58     -155.48633      1417397.2    
    281000   500.34995     -239409.58      0             -235270.43     -200.98396      1417405.4    
    281500   500.33096     -239406.88      0             -235267.88     -184.12549      1417413.5    
    282000   499.43123     -239395.47      0             -235263.92     -87.873848      1417421.4    
    282500   500.4709      -239398.51      0             -235258.36     -132.81703      1417429.2    
    283000   501.58156     -239401.52      0             -235252.18     -235.43581      1417436.9    
    283500   499.88545     -239382.73      0             -235247.42     -28.340704      1417444.4    
    284000   501.7449      -239396.87      0             -235246.18     -248.78609      1417451.8    
    284500   501.60627     -239401.19      0             -235251.64     -300.05854      1417459      
    285000   499.59198     -239398.16      0             -235265.27     -149.81039      1417466.2    
    285500   500.37698     -239420.21      0             -235280.83     -212.01253      1417473.1    
    286000   498.08156     -239410.24      0             -235289.85     -298.40785      1417479.9    
    286500   498.5386      -239415.56      0             -235291.39     -285.26216      1417486.6    
    287000   499.69793     -239420.3       0             -235286.53     -304.91083      1417493.1    
    287500   500.09676     -239412.81      0             -235275.75     -275.01716      1417499.4    
    288000   501.74921     -239413.36      0             -235262.63     -279.94835      1417505.6    
    288500   500.46333     -239394.01      0             -235253.92     -185.138        1417511.6    
    289000   502.07893     -239405.49      0             -235252.03     -245.72038      1417517.5    
    289500   498.7535      -239379.82      0             -235253.87     -101.18058      1417523.2    
    290000   501.80373     -239408.21      0             -235257.03     -288.93005      1417528.8    
    290500   501.28556     -239408.94      0             -235262.04     -265.11764      1417534.3    
    291000   500.81781     -239410.99      0             -235267.97     -212.93461      1417539.7    
    291500   500.0205      -239410.54      0             -235274.11     -332.72672      1417544.9    
    292000   498.07106     -239400.58      0             -235280.28     -330.88651      1417550      
    292500   499.67428     -239419.89      0             -235286.33     -308.0086       1417555      
    293000   500.07019     -239428.44      0             -235291.6      -337.29382      1417559.8    
    293500   496.61873     -239401.2       0             -235292.91     -335.61012      1417564.4    
    294000   498.07886     -239406.14      0             -235285.77     -227.75489      1417568.9    
    294500   498.81565     -239397.12      0             -235270.65     -264.20848      1417573.2    
    295000   500.04521     -239392.75      0             -235256.11     -128.85007      1417577.4    
    295500   500.78377     -239390.73      0             -235247.99     -99.827128      1417581.4    
    296000   499.70174     -239379.68      0             -235245.89     -141.32715      1417585.4    
    296500   502.0253      -239401.99      0             -235248.97     -272.07063      1417589.2    
    297000   501.76072     -239408.84      0             -235258.02     -275.77706      1417593      
    297500   498.62244     -239398.15      0             -235273.28     -134.92444      1417596.6    
    298000   498.83294     -239414.41      0             -235287.8      -374.87806      1417600.1    
    298500   497.96943     -239413.13      0             -235293.67     -359.21746      1417603.4    
    299000   499.71522     -239425.57      0             -235291.67     -433.45135      1417606.6    
    299500   498.28268     -239407.98      0             -235285.92     -392.91095      1417609.7    
    300000   497.70327     -239396.98      0             -235279.72     -332.33394      1417612.6    
    300500   498.80638     -239399.54      0             -235273.15     -257.93111      1417615.3    
    301000   499.36034     -239397.02      0             -235266.05     -280.35044      1417617.9    
    301500   500.79323     -239402.19      0             -235259.37     -301.87086      1417620.4    
    302000   500.74928     -239396.07      0             -235253.61     -175.08061      1417622.8    
    302500   499.88579     -239384.92      0             -235249.61     -145.42832      1417625.1    
    303000   500.25682     -239386.63      0             -235248.25     -163.97183      1417627.3    
    303500   502.58878     -239410.12      0             -235252.44     -293.01441      1417629.4    
    304000   499.95192     -239401.19      0             -235265.33     -161.36973      1417631.4    
    304500   499.22487     -239409.92      0             -235280.07     -340.66746      1417633.3    
    305000   498.96188     -239416.97      0             -235289.29     -468.71869      1417635.1    
    305500   498.77021     -239417.43      0             -235291.34     -309.84529      1417636.8    
    306000   501.28353     -239433.09      0             -235286.21     -502.52956      1417638.3    
    306500   498.67007     -239398.41      0             -235273.16     -180.46894      1417639.7    
    307000   501.05824     -239402.41      0             -235257.4      -417.16154      1417641      
    307500   500.22552     -239386.66      0             -235248.53     -182.62811      1417642.2    
    308000   501.93736     -239398.99      0             -235246.7      -186.90391      1417643.3    
    308500   501.48782     -239397.68      0             -235249.11     -220.10718      1417644.3    
    309000   500.27458     -239392.41      0             -235253.87     -136.43335      1417645.2    
    309500   501.56111     -239408.99      0             -235259.81     -279.16153      1417646.1    
    310000   499.63167     -239398.58      0             -235265.37     -185.28421      1417646.9    
    310500   498.19813     -239390.94      0             -235269.58     -308.3381       1417647.5    
    311000   498.37383     -239394.77      0             -235271.96     -277.01845      1417648.1    
    311500   499.74115     -239406.78      0             -235272.66     -374.44755      1417648.6    
    312000   497.39598     -239384.92      0             -235270.2      -189.1924       1417648.9    
    312500   498.60617     -239384.56      0             -235259.83     -228.33848      1417649.2    
    313000   501.05323     -239391.68      0             -235246.7      -224.84338      1417649.3    
    313500   502.28667     -239393.28      0             -235238.1      -237.75602      1417649.4    
    314000   501.1916      -239382.46      0             -235236.34     -237.6096       1417649.3    
    314500   500.57613     -239383.34      0             -235242.31     -167.63084      1417649.3    
    315000   501.57692     -239404.7       0             -235255.4      -329.02236      1417649.1    
    315500   500.84097     -239412.89      0             -235269.67     -367.60766      1417648.8    
    316000   499.51541     -239411.03      0             -235278.78     -242.47362      1417648.5    
    316500   499.44728     -239413.45      0             -235281.76     -363.08132      1417648.1    
    317000   499.85445     -239415.02      0             -235279.96     -312.70857      1417647.5    
    317500   497.41995     -239388.71      0             -235273.8      -259.66223      1417646.9    
    318000   500.14629     -239400.02      0             -235262.55     -242.84722      1417646.1    
    318500   501.16441     -239391.68      0             -235245.78     -259.55895      1417645.3    
    319000   502.30519     -239385.63      0             -235230.3      -176.64441      1417644.4    
    319500   502.90353     -239385.66      0             -235225.38     -75.135164      1417643.4    
    320000   500.79808     -239372.5       0             -235229.64     -128.27602      1417642.4    
    320500   499.92986     -239371.88      0             -235236.2      -226.28224      1417641.4    
    321000   501.20672     -239389.93      0             -235243.69     -277.94578      1417640.3    
    321500   502.08932     -239406.93      0             -235253.39     -296.76098      1417639.1    
    322000   502.09129     -239417.62      0             -235264.06     -349.15599      1417637.9    
    322500   497.85453     -239392.32      0             -235273.81     -119.80646      1417636.5    
    323000   500.32525     -239418.73      0             -235279.78     -396.77844      1417635.1    
    323500   499.38352     -239413.33      0             -235282.17     -432.97208      1417633.6    
    324000   498.29565     -239402.15      0             -235279.99     -255.90245      1417632      
    324500   499.61298     -239403.05      0             -235269.99     -267.35336      1417630.3    
    325000   500.72388     -239393.17      0             -235250.92     -223.22677      1417628.5    
    325500   502.10823     -239390.22      0             -235236.52     -191.49285      1417626.7    
    326000   502.54473     -239390.77      0             -235233.46     -216.02325      1417624.8    
    326500   500.79059     -239381         0             -235238.2      -153.1749       1417622.8    
    327000   500.22066     -239385.42      0             -235247.33     -199.53631      1417620.9    
    327500   500.00177     -239393.05      0             -235256.77     -260.90435      1417618.8    
    328000   499.41591     -239395.01      0             -235263.58     -202.05797      1417616.7    
    328500   498.27795     -239389.16      0             -235267.14     -192.32592      1417614.5    
    329000   499.00009     -239396.75      0             -235268.76     -246.77421      1417612.2    
    329500   501.86622     -239420.58      0             -235268.89     -247.39295      1417609.9    
    330000   500.26592     -239406.3       0             -235267.84     -219.5273       1417607.5    
    330500   498.70351     -239391.7       0             -235266.17     -244.05448      1417605      
    331000   498.88768     -239389.02      0             -235261.96     -214.45465      1417602.5    
    331500   501.77325     -239402.31      0             -235251.38     -203.67469      1417599.8    
    332000   501.85256     -239387.41      0             -235235.82     -166.49505      1417597.2    
    332500   503.90507     -239395.37      0             -235226.8      -195.30568      1417594.5    
    333000   504.12542     -239398.13      0             -235227.74     -222.72059      1417591.8    
    333500   500.65068     -239381.48      0             -235239.84     -93.617091      1417589.1    
    334000   501.88498     -239409.38      0             -235257.52     -311.96343      1417586.3    
    334500   498.89096     -239395.91      0             -235268.82     -224.56223      1417583.5    
    335000   500.37193     -239412.63      0             -235273.3      -312.01774      1417580.6    
    335500   499.00732     -239402.61      0             -235274.56     -318.79171      1417577.6    
    336000   500.36861     -239412.67      0             -235273.36     -355.13098      1417574.6    
    336500   501.8763      -239421.41      0             -235269.63     -404.09581      1417571.5    
    337000   499.97324     -239398.59      0             -235262.55     -261.38854      1417568.4    
    337500   501.64581     -239400.34      0             -235250.46     -278.7125       1417565.1    
    338000   502.28842     -239390.28      0             -235235.09     -188.93079      1417561.9    
    338500   501.63485     -239374.42      0             -235224.64     -56.051034      1417558.6    
    339000   502.86853     -239384.42      0             -235224.43     -195.26578      1417555.2    
    339500   501.35625     -239386.21      0             -235238.73     -121.93103      1417551.9    
    340000   499.75144     -239397.17      0             -235262.97     -177.06277      1417548.5    
    340500   499.4586      -239404.4       0             -235272.62     -337.62494      1417545.1    
    341000   499.4888      -239407.49      0             -235275.45     -170.00021      1417541.7    
    341500   498.08428     -239396.03      0             -235275.62     -321.72671      1417538.1    
    342000   498.72556     -239398.9       0             -235273.19     -219.28156      1417534.5    
    342500   500.76143     -239410.61      0             -235268.05     -277.27505      1417530.9    
    343000   500.58465     -239401.62      0             -235260.53     -250.3902       1417527.1    
    343500   500.45997     -239391.77      0             -235251.7      -188.02685      1417523.4    
    344000   499.53331     -239376.26      0             -235243.86     -106.82472      1417519.6    
    344500   502.03152     -239391.77      0             -235238.7      -209.70886      1417515.7    
    345000   503.86533     -239407.47      0             -235239.24     -272.3871       1417511.9    
    345500   501.46835     -239399.78      0             -235251.37     -224.02457      1417508      
    346000   500.11674     -239408.6       0             -235271.37     -291.5963       1417504.1    
    346500   499.96832     -239419.63      0             -235283.64     -361.06156      1417500.1    
    347000   498.31913     -239409.88      0             -235287.53     -258.72856      1417496.1    
    347500   498.67432     -239410.78      0             -235285.48     -395.32488      1417492      
    348000   499.01842     -239406.46      0             -235278.32     -133.23173      1417487.9    
    348500   499.01006     -239394.88      0             -235266.81     -215.94383      1417483.7    
    349000   501.07057     -239399.58      0             -235254.46     -180.41732      1417479.5    
    349500   502.26813     -239401.14      0             -235246.12     -242.20011      1417475.2    
    350000   501.2908      -239390.97      0             -235244.03     -173.57606      1417470.9    
    350500   501.38754     -239395.68      0             -235247.94     -209.77724      1417466.6    
    351000   501.7531      -239410.19      0             -235259.43     -205.40964      1417462.3    
    351500   500.70218     -239428.9       0             -235286.83     -358.41792      1417457.9    
    352000   497.76792     -239421.42      0             -235303.62     -337.45121      1417453.5    
    352500   497.30663     -239415.93      0             -235301.95     -389.60059      1417449      
    353000   498.45649     -239416.47      0             -235292.97     -305.56112      1417444.5    
    353500   501.05705     -239423.92      0             -235278.92     -272.84136      1417439.8    
    354000   499.58994     -239398.22      0             -235265.35     -202.15702      1417435.2    
    354500   501.53712     -239404.35      0             -235255.37     -163.62351      1417430.5    
    355000   501.3631      -239397.51      0             -235249.98     -158.39061      1417425.8    
    355500   502.30162     -239404.18      0             -235248.88     -210.73094      1417421.1    
    356000   500.49913     -239393.59      0             -235253.2      -206.89715      1417416.4    
    356500   499.38814     -239395.58      0             -235264.38     -164.57483      1417411.6    
    357000   498.75111     -239407.07      0             -235281.14     -228.6375       1417406.9    
    357500   498.81665     -239419.62      0             -235293.14     -350.22546      1417402.1    
    358000   498.6371      -239420.79      0             -235295.8      -386.79404      1417397.2    
    358500   498.86483     -239418.6       0             -235291.73     -269.38659      1417392.3    
    359000   496.7615      -239393.91      0             -235284.44     -243.5402       1417387.3    
    359500   500.4648      -239417.67      0             -235277.56     -265.06925      1417382.3    
    360000   500.96132     -239416.66      0             -235272.45     -321.11025      1417377.3    
    360500   498.89706     -239396.03      0             -235268.9      -179.2247       1417372.2    
    361000   497.93816     -239385.55      0             -235266.35     -100.68497      1417367.2    
    361500   502.32097     -239419.78      0             -235264.32     -304.05797      1417362.1    
    362000   501.29213     -239410.65      0             -235263.7      -88.29199       1417357      
    362500   500.32606     -239403.28      0             -235264.32     -135.6809       1417351.8    
    363000   500.58779     -239409.58      0             -235268.46     -212.95424      1417346.7    
    363500   498.2168      -239398.71      0             -235277.2      -128.69059      1417341.5    
    364000   500.33978     -239426.22      0             -235287.15     -278.37561      1417336.4    
    364500   498.73622     -239419.59      0             -235293.79     -172.94885      1417331.1    
    365000   498.74683     -239420.2       0             -235294.31     -171.03181      1417325.9    
    365500   499.37224     -239418.56      0             -235287.49     -317.78146      1417320.6    
    366000   502.36209     -239428.58      0             -235272.78     -285.81459      1417315.3    
    366500   501.49354     -239406.51      0             -235257.89     -100.71243      1417310      
    367000   498.87069     -239377.4       0             -235250.49     -20.746726      1417304.8    
    367500   500.32035     -239388.96      0             -235250.05     -47.991148      1417299.5    
    368000   502.42721     -239410.49      0             -235254.15     -138.2096       1417294.3    
    368500   499.48812     -239393.22      0             -235261.19     -157.13295      1417289      
    369000   499.83189     -239403.72      0             -235268.85     -162.04096      1417283.8    
    369500   500.80504     -239417.43      0             -235274.51     -263.2421       1417278.5    
    370000   500.4168      -239416.62      0             -235276.91     -249.22046      1417273.2    
    370500   500.4192      -239416.4       0             -235276.67     -215.46042      1417267.9    
    371000   497.2795      -239389.39      0             -235275.64     -61.793209      1417262.6    
    371500   499.0608      -239402.37      0             -235273.88     -113.03837      1417257.2    
    372000   498.98131     -239399.3       0             -235271.46     -92.175093      1417251.9    
    372500   499.87948     -239403.89      0             -235268.63     -141.47704      1417246.5    
    373000   500.67653     -239407.23      0             -235265.37     -97.466678      1417241.1    
    373500   498.75931     -239387.43      0             -235261.43     -52.48822       1417235.7    
    374000   499.68169     -239389.5       0             -235255.88     -31.9386        1417230.4    
    374500   501.78137     -239401.07      0             -235250.07     -100.76568      1417225      
    375000   500.65705     -239389.32      0             -235247.63     -34.331698      1417219.7    
[...]
   1908000   497.83196     -239445.83      0             -235327.5      -119.94308      1416754.2    
   1908500   499.05353     -239437.79      0             -235309.36     -152.29316      1416753.2    
   1909000   499.72774     -239422.95      0             -235288.94     -6.7783041      1416752.1    
   1909500   501.0212      -239421.81      0             -235277.11     -82.238526      1416751      
   1910000   499.68476     -239403.57      0             -235269.92      84.120788      1416749.9    
   1910500   502.16764     -239419.69      0             -235265.5       9.6210861      1416748.9    
   1911000   500.1217      -239401.25      0             -235263.98      61.803465      1416747.8    
   1911500   500.89758     -239409.79      0             -235266.1       58.463043      1416746.8    
   1912000   500.34213     -239412.29      0             -235273.19     -10.47242       1416745.8    
   1912500   500.42013     -239425.66      0             -235285.93     -118.21748      1416744.8    
   1913000   497.74287     -239417.14      0             -235299.56     -43.666011      1416743.8    
   1913500   498.40087     -239430.58      0             -235307.55     -149.36206      1416742.8    
   1914000   498.00653     -239427.36      0             -235307.59     -172.58481      1416741.7    
   1914500   498.39265     -239421.23      0             -235298.27     -68.861147      1416740.6    
   1915000   500.47944     -239416.47      0             -235276.25     -36.137777      1416739.5    
   1915500   499.87464     -239395.26      0             -235260.04      64.794468      1416738.4    
   1916000   500.57084     -239398.74      0             -235257.76      37.240338      1416737.4    
   1916500   500.49221     -239401.45      0             -235261.12      122.27093      1416736.3    
   1917000   502.19992     -239423.09      0             -235268.63     -80.858642      1416735.3    
   1917500   501.55798     -239427.55      0             -235278.4      -20.387669      1416734.3    
   1918000   498.25828     -239409.87      0             -235288.02     -70.720873      1416733.3    
   1918500   498.84925     -239421.96      0             -235295.22     -49.909996      1416732.3    
   1919000   499.85747     -239433.88      0             -235298.8      -32.803221      1416731.3    
   1919500   499.47196     -239428.76      0             -235296.87     -29.285797      1416730.2    
   1920000   499.28467     -239414.4       0             -235284.06     -13.331737      1416729.2    
   1920500   502.47481     -239418.26      0             -235261.52     -52.492362      1416728.1    
   1921000   501.53884     -239399.23      0             -235250.24      131.71393      1416727      
   1921500   503.22216     -239412.66      0             -235249.74      47.239877      1416726      
   1922000   502.67903     -239414.6       0             -235256.18      29.655316      1416725      
   1922500   500.56944     -239408.48      0             -235267.51     -22.514395      1416724.1    
   1923000   500.27193     -239417.49      0             -235278.98     -25.757392      1416723.1    
   1923500   499.20831     -239416.18      0             -235286.47      57.682449      1416722.2    
   1924000   497.97615     -239409.04      0             -235289.52     -15.718875      1416721.2    
   1924500   498.73866     -239414.82      0             -235289         102.86321      1416720.3    
   1925000   499.57772     -239419.31      0             -235286.55     -26.63093       1416719.4    
   1925500   498.42153     -239406.21      0             -235283.01      123.16564      1416718.4    
   1926000   500.0209      -239416.1       0             -235279.67      44.249965      1416717.5    
   1926500   501.23309     -239423.42      0             -235276.95     -57.606299      1416716.6    
   1927000   498.96084     -239402.77      0             -235275.1      -44.533896      1416715.7    
   1927500   500.02405     -239411.19      0             -235274.73      11.479038      1416714.8    
   1928000   498.67324     -239400.49      0             -235275.21      47.946219      1416713.9    
   1928500   498.37474     -239398.77      0             -235275.96      10.525631      1416713      
   1929000   500.05008     -239413.26      0             -235276.58     -84.354547      1416712.1    
   1929500   499.88202     -239412.88      0             -235277.59     -68.915682      1416711.2    
   1930000   497.59146     -239395.51      0             -235279.17      149.53092      1416710.3    
   1930500   499.36526     -239412.15      0             -235281.14      75.430624      1416709.4    
   1931000   500.24761     -239422.06      0             -235283.76     -6.8324267      1416708.6    
   1931500   500.96557     -239431.65      0             -235287.4      -62.262976      1416707.7    
   1932000   497.93262     -239410.91      0             -235291.76      9.2269306      1416706.9    
   1932500   497.19543     -239407.89      0             -235294.83      112.80527      1416706      
   1933000   498.14491     -239415.12      0             -235294.21      27.884734      1416705.2    
   1933500   498.79849     -239414.79      0             -235288.47     -10.018748      1416704.3    
   1934000   497.96861     -239397         0             -235277.55      223.5286       1416703.5    
   1934500   502.29943     -239420.09      0             -235264.81      3.2009519      1416702.7    
   1935000   503.47471     -239421.18      0             -235256.17     -26.101041      1416702      
   1935500   501.28783     -239400.48      0             -235253.57      116.37179      1416701.2    
   1936000   502.33373     -239413.38      0             -235257.82     -10.489015      1416700.5    
   1936500   500.88347     -239416.29      0             -235272.73      42.503776      1416699.9    
   1937000   498.5899      -239419.3       0             -235294.71     -67.293746      1416699.2    
   1937500   498.77469     -239430.21      0             -235304.08     -70.064312      1416698.6    
   1938000   498.54908     -239427.76      0             -235303.5      -138.9919       1416697.9    
   1938500   499.80245     -239432.35      0             -235297.72     -20.525009      1416697.2    
   1939000   499.17731     -239417.97      0             -235288.52     -36.686629      1416696.5    
   1939500   501.43176     -239426.51      0             -235278.41     -111.16319      1416695.8    
   1940000   501.93665     -239422.54      0             -235270.26     -26.211715      1416695.1    
   1940500   502.28229     -239420.64      0             -235265.5       96.932389      1416694.5    
   1941000   500.21314     -239402.46      0             -235264.44      53.038529      1416693.8    
   1941500   500.63109     -239408.9       0             -235267.42      57.765211      1416693.2    
   1942000   500.40532     -239419.14      0             -235279.53      17.247153      1416692.6    
   1942500   499.11778     -239434.64      0             -235305.68     -18.900674      1416692.1    
   1943000   497.48009     -239433.06      0             -235317.65     -64.66787       1416691.5    
   1943500   497.80471     -239434.23      0             -235316.13     -116.47065      1416690.9    
   1944000   497.6454      -239423.08      0             -235306.3       61.926365      1416690.2    
   1944500   499.77068     -239426.47      0             -235292.11      22.275139      1416689.5    
   1945000   502.67116     -239438.49      0             -235280.13     -69.457361      1416688.9    
   1945500   500.94962     -239416.94      0             -235272.82     -17.510726      1416688.3    
   1946000   500.15273     -239406.94      0             -235269.42      57.297842      1416687.7    
   1946500   498.7656      -239395.28      0             -235269.23      122.48886      1416687.1    
   1947000   500.1919      -239409.56      0             -235271.72     -21.371546      1416686.5    
   1947500   500.82299     -239421.03      0             -235277.96     -27.625357      1416685.9    
   1948000   498.54301     -239416.64      0             -235292.44      22.644752      1416685.4    
   1948500   498.41407     -239434.74      0             -235311.6       9.1708115      1416684.8    
   1949000   496.07885     -239424.59      0             -235320.76     -6.386351       1416684.3    
   1949500   496.67217     -239426.7       0             -235317.97     -46.651266      1416683.7    
   1950000   497.01645     -239418.89      0             -235307.31      126.77293      1416683      
   1950500   497.72087     -239413.03      0             -235295.62     -32.990794      1416682.4    
   1951000   498.74576     -239414.08      0             -235288.2      -38.777314      1416681.7    
   1951500   499.32373     -239413.4       0             -235282.74     -3.0581045      1416681      
   1952000   499.36926     -239409.11      0             -235278.07      187.70446      1416680.4    
   1952500   499.88802     -239409.43      0             -235274.09      142.73461      1416679.7    
   1953000   500.08119     -239407.7       0             -235270.77      76.955927      1416679.1    
   1953500   501.75962     -239419.25      0             -235268.43      40.732704      1416678.5    
   1954000   500.41776     -239407.52      0             -235267.8       65.42468       1416678      
   1954500   499.70168     -239404.58      0             -235270.79      57.209478      1416677.4    
   1955000   497.56204     -239395.24      0             -235279.15      65.005597      1416676.9    
   1955500   497.93021     -239409.94      0             -235290.8       93.648649      1416676.4    
   1956000   499.49799     -239432.47      0             -235300.36     -139.73006      1416675.9    
   1956500   496.4899      -239412.37      0             -235305.15      101.61057      1416675.4    
   1957000   499.59842     -239436.12      0             -235303.18     -60.406966      1416674.9    
   1957500   498.15273     -239412.99      0             -235292.01      68.134645      1416674.4    
   1958000   499.76326     -239407.5       0             -235273.2       56.463623      1416673.9    
   1958500   500.61935     -239401.99      0             -235260.61      91.605438      1416673.4    
   1959000   503.77341     -239425.13      0             -235257.66      59.167866      1416673      
   1959500   502.7249      -239419.12      0             -235260.31      41.717879      1416672.6    
   1960000   502.01423     -239419.67      0             -235266.74      35.678843      1416672.2    
   1960500   501.35077     -239422.36      0             -235274.93     -17.893543      1416671.9    
   1961000   499.21102     -239412.55      0             -235282.82     -33.987086      1416671.6    
   1961500   500.29393     -239426.94      0             -235288.25     -21.855071      1416671.3    
   1962000   500.20847     -239428.7       0             -235290.72      30.88629       1416670.9    
   1962500   500.36646     -239429.06      0             -235289.76     -70.587197      1416670.6    
   1963000   499.66438     -239419.02      0             -235285.54      67.365524      1416670.3    
   1963500   501.32553     -239417.02      0             -235269.79     -5.6336095      1416670      
   1964000   504.25909     -239412.5       0             -235241         57.487503      1416669.7    
   1964500   503.4725      -239398.24      0             -235233.26      151.08368      1416669.5    
   1965000   501.76099     -239389.5       0             -235238.67      225.32486      1416669.3    
   1965500   501.79771     -239404.43      0             -235253.3       149.94959      1416669.2    
   1966000   499.18062     -239398.72      0             -235269.24      152.35056      1416669.1    
   1966500   500.01609     -239416.84      0             -235280.45      17.810633      1416669.1    
   1967000   497.56645     -239403.82      0             -235287.69      98.347528      1416669.1    
   1967500   501.32143     -239438.73      0             -235291.54     -128.8907       1416669      
   1968000   499.23295     -239422.41      0             -235292.5       39.683864      1416669      
   1968500   498.86624     -239416.4       0             -235289.51     -56.2009        1416669      
   1969000   498.63745     -239405.76      0             -235280.77      83.728132      1416668.9    
   1969500   500.98695     -239408.92      0             -235264.5       156.5491       1416668.9    
   1970000   502.59767     -239406.98      0             -235249.24      225.40582      1416668.9    
   1970500   502.36522     -239400.11      0             -235244.29      200.12224      1416668.9    
   1971000   501.94437     -239400.96      0             -235248.62      53.716056      1416669      
   1971500   501.61131     -239408.87      0             -235259.28      59.32965       1416669.2    
   1972000   502.10938     -239423.97      0             -235270.26     -10.391241      1416669.3    
   1972500   499.75807     -239410.57      0             -235276.31      76.484729      1416669.5    
   1973000   501.76636     -239430.03      0             -235279.16      25.653379      1416669.7    
   1973500   501.334       -239428.09      0             -235280.8       20.136858      1416669.9    
   1974000   501.34996     -239429.39      0             -235281.96     -27.601045      1416670.2    
   1974500   498.9251      -239410.08      0             -235282.71      72.286917      1416670.4    
   1975000   499.03545     -239410.7       0             -235282.42     -7.8020117      1416670.6    
   1975500   501.39963     -239428.76      0             -235280.92     -39.579859      1416670.9    
   1976000   500.99865     -239421.62      0             -235277.1      -75.849117      1416671.1    
   1976500   500.99858     -239415.19      0             -235270.66      88.231345      1416671.4    
   1977000   500.68588     -239405.47      0             -235263.54      134.64003      1416671.7    
   1977500   500.51551     -239398.75      0             -235258.23      127.57576      1416672      
   1978000   502.31675     -239413.01      0             -235257.58      76.206698      1416672.3    
   1978500   501.56493     -239413.02      0             -235263.82      144.26694      1416672.7    
   1979000   500.98079     -239422.44      0             -235278.07     -18.241539      1416673.1    
   1979500   498.4449      -239416.73      0             -235293.33      83.509957      1416673.5    
   1980000   500.21465     -239439.38      0             -235301.35     -106.6262       1416673.9    
   1980500   497.55906     -239418.36      0             -235302.3      -41.080954      1416674.3    
   1981000   499.3107      -239428.31      0             -235297.75     -134.31142      1416674.7    
   1981500   498.85959     -239416.07      0             -235289.25      13.390294      1416675      
   1982000   500.67547     -239420.67      0             -235278.82      17.573735      1416675.4    
   1982500   499.30378     -239401.6       0             -235271.1       185.98747      1416675.7    
   1983000   501.1622      -239414.52      0             -235268.65      145.93191      1416676.1    
   1983500   500.46941     -239409.58      0             -235269.44      38.453696      1416676.5    
   1984000   500.87877     -239415.14      0             -235271.61     -11.824453      1416676.9    
   1984500   499.36787     -239406.36      0             -235275.33      50.690724      1416677.3    
   1985000   498.6172      -239405.01      0             -235280.19      67.89898       1416677.7    
   1985500   500.39376     -239425.27      0             -235285.75     -47.711341      1416678.2    
   1986000   500.10474     -239428.92      0             -235291.79     -4.6522963      1416678.7    
   1986500   498.72435     -239423.63      0             -235297.92     -15.894857      1416679.1    
   1987000   499.0111      -239431.54      0             -235303.47     -7.3892194      1416679.6    
   1987500   497.3986      -239420.4       0             -235305.66     -15.56355       1416680.1    
   1988000   499.30793     -239431.42      0             -235300.88     -19.142721      1416680.5    
   1988500   499.54809     -239419.59      0             -235287.07      50.206679      1416681      
   1989000   499.29807     -239401.88      0             -235271.43      187.08121      1416681.4    
   1989500   501.32624     -239408.61      0             -235261.38      111.04502      1416681.9    
   1990000   500.89409     -239402.01      0             -235258.35      150.48244      1416682.4    
   1990500   501.64757     -239410.91      0             -235261.02      117.4022       1416682.9    
   1991000   500.30679     -239408.44      0             -235269.64      21.291311      1416683.5    
   1991500   499.45269     -239415.1       0             -235283.37     -26.2311        1416684.1    
   1992000   499.91924     -239432.66      0             -235297.07     -81.042134      1416684.7    
   1992500   496.76587     -239413.2       0             -235303.69     -48.666132      1416685.3    
   1993000   496.85709     -239413.2       0             -235302.94      48.49822       1416685.8    
   1993500   497.8904      -239417.67      0             -235298.86     -5.0406627      1416686.4    
   1994000   498.47608     -239417.4       0             -235293.75      22.09582       1416686.9    
   1994500   498.39814     -239410.48      0             -235287.47      10.521732      1416687.5    
   1995000   500.35067     -239419.41      0             -235280.25     -11.851594      1416688      
   1995500   501.01619     -239417.67      0             -235273.01     -17.101331      1416688.5    
   1996000   503.40042     -239431.49      0             -235267.1       41.913979      1416689.1    
   1996500   501.09193     -239408.67      0             -235263.37      106.8479       1416689.7    
   1997000   501.65755     -239412.78      0             -235262.81      56.240805      1416690.3    
   1997500   501.14921     -239414.34      0             -235268.57     -20.715034      1416691      
   1998000   502.14796     -239437.82      0             -235283.79     -125.73554      1416691.6    
   1998500   499.16001     -239428.01      0             -235298.7      -135.25402      1416692.3    
   1999000   498.78904     -239432.62      0             -235306.37     -32.299339      1416692.9    
   1999500   497.07787     -239418.61      0             -235306.52     -11.600582      1416693.5    
   2000000   497.88803     -239417.91      0             -235299.12     -37.540285      1416694.1    
Loop time of 44853 on 10 procs for 2000000 steps with 64000 atoms

Performance: 3.853 ns/day, 6.230 hours/ns, 44.590 timesteps/s
99.2% CPU use with 10 MPI tasks x no OpenMP threads

MPI task timing breakdown:
Section |  min time  |  avg time  |  max time  |%varavg| %total
---------------------------------------------------------------
Pair    | 38373      | 39403      | 41028      | 359.8 | 87.85
Neigh   | 753.22     | 763.67     | 775.17     |  29.6 |  1.70
Comm    | 2218.2     | 3875.7     | 4914.7     |1169.0 |  8.64
Output  | 14.3       | 14.308     | 14.375     |   0.6 |  0.03
Modify  | 659.69     | 671.93     | 685.49     |  30.7 |  1.50
Other   |            | 124.7      |            |       |  0.28

Nlocal:           6400 ave        6452 max        6340 min
Histogram: 1 2 1 0 0 1 2 0 0 3
Nghost:          12838 ave       12902 max       12782 min
Histogram: 2 1 1 0 1 2 0 1 0 2
Neighs:         801539 ave      807803 max      794440 min
Histogram: 1 3 0 0 0 0 2 1 0 3

Total # of neighbors = 8015393
Ave neighs/atom = 125.24052
Neighbor list builds = 30053
Dangerous builds = 0
Total wall time: 12:27:33
