LAMMPS (23 Jun 2022 - Update 4)
Lattice spacing in x,y,z = 5.5392 5.5392 5.5392
Created orthogonal box = (0 0 0) to (110.784 110.784 110.784)
  1 by 2 by 5 MPI processor grid
Created 64000 atoms
  using lattice units in orthogonal box = (0 0 0) to (110.784 110.784 110.784)
  create_atoms CPU = 0.002 seconds
32000 atoms in group Ba
32000 atoms in group O
WARNING: 23463 of 50000 force values in table Vash_11 are inconsistent with -dE/dr.
WARNING:  Should only be flagged at inflection points (../pair_table.cpp:463)
WARNING: 43814 of 50000 distance values in table 1e-06 with relative error
WARNING:  over Vash_11 to re-computed values (../pair_table.cpp:471)
WARNING: 23576 of 50000 force values in table Vash_12 are inconsistent with -dE/dr.
WARNING:  Should only be flagged at inflection points (../pair_table.cpp:463)
WARNING: 43814 of 50000 distance values in table 1e-06 with relative error
WARNING:  over Vash_12 to re-computed values (../pair_table.cpp:471)
WARNING: 23794 of 50000 force values in table Vash_22 are inconsistent with -dE/dr.
WARNING:  Should only be flagged at inflection points (../pair_table.cpp:463)
WARNING: 43814 of 50000 distance values in table 1e-06 with relative error
WARNING:  over Vash_22 to re-computed values (../pair_table.cpp:471)
Generated 0 of 1 mixed pair_coeff terms from geometric mixing rule
Neighbor list info ...
  update every 8 steps, delay 0 steps, check yes
  max neighbors/atom: 2000, page size: 100000
  master list distance cutoff = 11
  ghost atom cutoff = 11
  binsize = 5.5, bins = 21 21 21
  1 neighbor lists, perpetual/occasional/extra = 1 0 0
  (1) pair table, perpetual
      attributes: half, newton on
      pair build: half/bin/atomonly/newton
      stencil: half/bin/3d
      bin: standard
Setting up Verlet run ...
  Unit style    : metal
  Current step  : 0
  Time step     : 0.001
Per MPI rank memory allocation (min/avg/max) = 8.384 | 9.056 | 9.533 Mbytes
   Step          Temp          E_pair         E_mol          TotEng         Press          Volume    
         0   700           -243821.04      0             -238030.27      4236.5547      1359662.5    
       500   355.11503     -240850.74      0             -237913.04      17131.021      1359664.4    
      1000   373.49833     -240834.26      0             -237744.49      17460.861      1359670.1    
      1500   389.04735     -240768.38      0             -237549.98      17893.991      1359679.7    
      2000   399.51785     -240642.15      0             -237337.13      18632.048      1359693.4    
      2500   413.15324     -240526.76      0             -237108.94      19191.945      1359711.3    
      3000   428.3072      -240410.66      0             -236867.48      19895.485      1359733.5    
      3500   444.84683     -240294.37      0             -236614.37      20605.496      1359760.1    
      4000   461.53874     -240169.2       0             -236351.11      21234.99       1359791.4    
      4500   478.43819     -240036.95      0             -236079.06      22003.01       1359827.4    
      5000   497.10831     -239911.87      0             -235799.53      22683.595      1359868.4    
      5500   514.25604     -239768.2       0             -235514.01      23525.002      1359914.5    
      6000   529.90016     -239608.01      0             -235224.4       24283.771      1359965.9    
      6500   548.49668     -239469.72      0             -234932.27      25058.844      1360022.7    
      7000   569.68062     -239352.48      0             -234639.79      25741.27       1360085.1    
      7500   586.84719     -239203.87      0             -234349.17      26582.353      1360153.3    
      8000   606.4696      -239079.92      0             -234062.88      27211.403      1360227.5    
      8500   623.86391     -238944.92      0             -233783.99      27864.962      1360307.7    
      9000   640.01027     -238810.02      0             -233515.53      28735.06       1360394.2    
      9500   655.71416     -238685.56      0             -233261.15      29285.38       1360487.1    
     10000   671.18689     -238577.26      0             -233024.85      29877.937      1360586.6    
     10500   684.00244     -238470.3       0             -232811.88      30447.613      1360692.6    
     11000   696.4524      -238388.82      0             -232627.4       30849.512      1360805.5    
     11500   704.19985     -238303.96      0             -232478.46      31129.27       1360925.1    
     12000   708.9805      -238239.17      0             -232374.11      31600.777      1361051.7    
     12500   711.83922     -238213.15      0             -232324.44      31583.91       1361185.1    
     13000   715.1128      -238252.03      0             -232336.25      31381.474      1361325.4    
     13500   709.63719     -238275.68      0             -232405.2       31227.577      1361472.5    
     14000   705.09284     -238339.23      0             -232506.34      30789.259      1361626.4    
     14500   696.60207     -238371.58      0             -232608.92      30582.976      1361786.8    
     15000   692.69208     -238419.91      0             -232689.6       30119.204      1361953.7    
     15500   688.21211     -238427         0             -232733.75      29938.038      1362126.9    
     16000   686.51714     -238412.81      0             -232733.58      30084.581      1362306.4    
     16500   691.6223      -238410.81      0             -232689.35      29861.051      1362491.9    
     17000   697.00569     -238381.17      0             -232615.18      29967.884      1362683.4    
     17500   700.24557     -238325.36      0             -232532.57      30230.473      1362880.8    
     18000   708.85124     -238326.36      0             -232462.37      30127.547      1363084.2    
     18500   706.7621      -238266.44      0             -232419.74      30421.993      1363293.2    
     19000   707.09174     -238263.77      0             -232414.34      30240.169      1363507.9    
     19500   707.95877     -238303.09      0             -232446.49      30013.894      1363728      
     20000   701.05812     -238306.36      0             -232506.84      29759.601      1363953.4    
     20500   696.32319     -238337.87      0             -232577.53      29542.922      1364183.8    
     21000   694.81534     -238388.46      0             -232640.58      29216.524      1364419      
     21500   692.93724     -238413.76      0             -232681.42      28881.726      1364658.7    
     22000   692.70754     -238421.3       0             -232690.87      28733.835      1364902.8    
     22500   694.45038     -238411.86      0             -232667.01      28776.634      1365151      
     23000   697.18591     -238384.28      0             -232616.8       28705.473      1365403      
     23500   697.66479     -238326.07      0             -232554.63      28819.532      1365658.6    
     24000   703.70841     -238317.84      0             -232496.39      28786.7        1365917.7    
     24500   707.81703     -238311.55      0             -232456.12      28730.764      1366179.9    
     25000   706.81889     -238290.23      0             -232443.06      28736.551      1366445.1    
     25500   704.61963     -238289.37      0             -232460.39      28587.397      1366713      
     26000   703.34106     -238321.24      0             -232502.83      28254.982      1366983.3    
     26500   699.21081     -238342.21      0             -232557.97      28147.741      1367255.7    
     27000   698.57504     -238390.53      0             -232611.55      27717.954      1367529.9    
     27500   695.50643     -238403.57      0             -232649.98      27562.517      1367805.5    
     28000   691.89989     -238388.27      0             -232664.52      27500.841      1368082.4    
     28500   695.50181     -238404.78      0             -232651.22      27226.84       1368360.1    
     29000   696.44049     -238375.87      0             -232614.55      27373.779      1368638.5    
     29500   699.37576     -238349.32      0             -232563.72      27304.348      1368917.3    
     30000   699.46941     -238299.12      0             -232512.75      27373.718      1369196.3    
     30500   706.0456      -238314.45      0             -232473.67      27260.77       1369475.3    
     31000   705.15219     -238289.52      0             -232456.14      27283.4        1369754      
     31500   704.51129     -238292.06      0             -232463.98      27052.177      1370032.3    
     32000   702.91323     -238310.1       0             -232495.24      26947.772      1370309.9    
     32500   700.68239     -238337.25      0             -232540.84      26638.082      1370586.6    
     33000   697.59064     -238359         0             -232588.17      26439.962      1370862.1    
     33500   694.6072      -238371.72      0             -232625.57      26084.016      1371136.4    
     34000   695.38035     -238395.91      0             -232643.36      25949.537      1371409.1    
     34500   694.71283     -238384.75      0             -232637.72      25782.104      1371680.3    
     35000   695.93039     -238366.91      0             -232609.81      25801.845      1371949.6    
     35500   694.0584      -238308.65      0             -232567.04      25969.127      1372217.1    
     36000   702.31226     -238330.28      0             -232520.39      25840.756      1372482.7    
     36500   704.78204     -238312.2       0             -232481.88      25811.462      1372746.3    
     37000   704.67514     -238289.91      0             -232460.47      25715.559      1373008      
     37500   703.25215     -238278.89      0             -232461.22      25655.5        1373267.6    
     38000   704.28225     -238309.83      0             -232483.64      25470.675      1373525.1    
     38500   700.06246     -238312.94      0             -232521.66      25381.795      1373780.6    
     39000   700.28972     -238357.86      0             -232564.7       24987.146      1374033.9    
     39500   695.38005     -238354.16      0             -232601.61      24818.331      1374285      
     40000   696.16778     -238382.3       0             -232623.23      24612.917      1374534      
     40500   695.1979      -238375.08      0             -232624.05      24520.359      1374780.9    
     41000   692.91871     -238336.19      0             -232604.01      24546.243      1375025.7    
     41500   698.77598     -238348.59      0             -232567.96      24461.433      1375268.4    
     42000   699.70909     -238313.98      0             -232525.62      24539.122      1375509.2    
     42500   702.02022     -238294.31      0             -232486.83      24583.254      1375748.1    
     43000   707.62902     -238316.03      0             -232462.16      24362.247      1375985.3    
     43500   703.67376     -238277.97      0             -232456.81      24432.075      1376220.7    
     44000   705.05497     -238304.46      0             -232471.88      24111.669      1376454.5    
     44500   699.87433     -238292.67      0             -232502.94      24047.565      1376686.8    
     45000   698.57741     -238320.54      0             -232541.55      23840.615      1376917.6    
     45500   695.4324      -238330.75      0             -232577.77      23711.504      1377147      
     46000   698.42957     -238380.2       0             -232602.42      23317.285      1377375      
     46500   695.07177     -238359.08      0             -232609.09      23367.942      1377601.7    
     47000   694.76318     -238343.39      0             -232595.95      23426.112      1377827.2    
     47500   699.48731     -238352.35      0             -232565.83      23210.794      1378051.6    
     48000   701.3213      -238328.59      0             -232526.89      23179.975      1378275      
     48500   699.61237     -238276.85      0             -232489.29      23349.899      1378497.5    
     49000   702.03764     -238269.56      0             -232461.94      23352.983      1378719.2    
     49500   705.69079     -238288.9       0             -232451.06      23233.388      1378940.2    
     50000   701.3288      -238261.57      0             -232459.82      23173.519      1379160.5    
     50500   701.79573     -238290.73      0             -232485.11      23047.97       1379380.3    
     51000   698.57878     -238299.06      0             -232520.05      22708.949      1379599.6    
     51500   697.97619     -238329.43      0             -232555.41      22563.002      1379818.4    
     52000   694.85378     -238329.85      0             -232581.65      22411.909      1380036.7    
     52500   693.83813     -238332.05      0             -232592.26      22365.884      1380254.7    
     53000   697.26395     -238351.82      0             -232583.69      22198.375      1380472.4    
     53500   695.66871     -238313.38      0             -232558.44      22184.323      1380689.7    
     54000   700.93233     -238321.28      0             -232522.81      22159.23       1380906.9    
     54500   702.55811     -238297.95      0             -232486.02      22143.296      1381123.8    
     55000   704.02542     -238281.03      0             -232456.97      22198.092      1381340.7    
     55500   704.5186      -238270.66      0             -232442.51      22106.658      1381557.5    
     56000   702.1018      -238254.46      0             -232446.31      22163.211      1381774.3    
     56500   702.29083     -238276.64      0             -232466.92      21888.571      1381991.1    
     57000   702.54255     -238309.82      0             -232498.02      21639.666      1382207.9    
     57500   698.12055     -238306.39      0             -232531.18      21490.356      1382424.7    
     58000   693.4413      -238294.48      0             -232557.97      21402.041      1382641.5    
     58500   696.03813     -238329.7       0             -232571.71      21148.822      1382858.3    
     59000   694.32638     -238312.03      0             -232568.2       21203.613      1383075.1    
     59500   698.39932     -238325.79      0             -232548.27      20990.465      1383291.8    
     60000   698.05289     -238291.8       0             -232517.15      21209.005      1383508.6    
     60500   699.86958     -238272.15      0             -232482.46      21104.002      1383725.5    
     61000   704.41079     -238280.32      0             -232453.07      21051.546      1383942.3    
     61500   704.78669     -238266.36      0             -232436         20945.035      1384159.2    
     62000   703.1332      -238251.84      0             -232435.15      21041.556      1384376.2    
     62500   701.87992     -238256.69      0             -232450.37      20874.433      1384593.2    
     63000   702.04298     -238284.74      0             -232477.07      20604.804      1384810.3    
     63500   697.69656     -238279.46      0             -232507.76      20590.593      1385027.3    
     64000   697.75335     -238306.34      0             -232534.16      20209.557      1385244.3    
     64500   695.76326     -238305.22      0             -232549.5       20163.658      1385461.1    
     65000   698.51202     -238327.57      0             -232549.12      20074.842      1385677.9    
     65500   699.50768     -238319.9       0             -232533.21      20032.17       1385894.5    
     66000   697.73064     -238277.26      0             -232505.27      20020.789      1386110.9    
     66500   702.3878      -238282.84      0             -232472.32      19911.548      1386327.2    
     67000   701.10342     -238242.77      0             -232442.88      20170.472      1386543.3    
     67500   703.98194     -238247.94      0             -232424.23      20045.82       1386759.2    
     68000   704.65506     -238249.79      0             -232420.52      19952.969      1386974.8    
     68500   702.38053     -238242.73      0             -232432.28      19888.839      1387190.3    
     69000   700.48061     -238250.7       0             -232455.96      19719.567      1387405.4    
     69500   700.29202     -238278.15      0             -232484.97      19603.507      1387620.3    
     70000   699.05528     -238294.27      0             -232511.32      19250.552      1387834.8    
     70500   694.33239     -238272.24      0             -232528.36      19247.138      1388048.8    
     71000   694.36408     -238275.62      0             -232531.48      19249.162      1388262.5    
     71500   697.99772     -238292.73      0             -232518.53      18979.934      1388475.6    
     72000   697.75119     -238265.24      0             -232493.08      19077.931      1388688.2    
     72500   701.74589     -238266.49      0             -232461.29      19108.486      1388900.3    
     73000   704.53696     -238259.69      0             -232431.39      18921.375      1389111.9    
     73500   705.12344     -238243.46      0             -232410.32      18967.416      1389322.9    
     74000   703.6238      -238223.68      0             -232402.94      18936.834      1389533.4    
     74500   701.60007     -238215.05      0             -232411.05      18853.307      1389743.3    
     75000   700.15871     -238224.08      0             -232432.01      18804          1389952.5    
     75500   701.66599     -238264.2       0             -232459.66      18469.23       1390161.1    
     76000   698.43943     -238264.12      0             -232486.26      18270.781      1390369      
     76500   696.19776     -238264.37      0             -232505.06      18197.004      1390576.2    
     77000   696.85186     -238275.47      0             -232510.75      18068.275      1390782.6    
     77500   697.78438     -238273.36      0             -232500.93      18103.253      1390988.2    
     78000   697.02555     -238244.18      0             -232478.02      18119.976      1391193      
     78500   698.76344     -238228.28      0             -232447.75      18158.318      1391396.9    
     79000   701.39072     -238220         0             -232417.73      18011.346      1391600.1    
     79500   704.64725     -238224.54      0             -232395.33      17991.899      1391802.4    
     80000   704.29848     -238211.68      0             -232385.36      17969.859      1392003.9    
     80500   703.33319     -238208.33      0             -232389.99      17981.415      1392204.6    
     81000   702.96722     -238222.93      0             -232407.62      17683.444      1392404.4    
     81500   702.00758     -238240.85      0             -232433.47      17564.004      1392603.4    
     82000   698.35018     -238236.99      0             -232459.88      17533.601      1392801.4    
     82500   696.67689     -238243.13      0             -232479.86      17322.815      1392998.6    
     83000   694.92285     -238236.61      0             -232487.85      17257.695      1393194.7    
     83500   697.68929     -238253.43      0             -232481.78      17141.339      1393389.9    
     84000   699.0865      -238245.86      0             -232462.65      17053.306      1393584.2    
     84500   699.57598     -238222.19      0             -232434.93      17060.832      1393777.4    
     85000   703.30651     -238223.88      0             -232405.76      17028.527      1393969.8    
     85500   703.81476     -238204.63      0             -232382.31      16984.687      1394161.1    
     86000   699.28215     -238154.91      0             -232370.09      17256.007      1394351.6    
     86500   704.01186     -238195.44      0             -232371.49      17038.224      1394541.1    
     87000   703.47933     -238204.98      0             -232385.43      16849.788      1394729.8    
     87500   700.60067     -238204.02      0             -232408.29      16813.611      1394917.5    
     88000   698.9696      -238215.7       0             -232433.46      16721.791      1395104.2    
     88500   697.89858     -238227.45      0             -232454.07      16483.989      1395290      
     89000   696.63349     -238227.17      0             -232464.25      16454.265      1395474.9    
     89500   697.88417     -238234.57      0             -232461.31      16317.357      1395658.7    
     90000   698.6534      -238224.91      0             -232445.28      16253.005      1395841.7    
     90500   701.13542     -238219.76      0             -232419.6       16240.685      1396023.6    
     91000   700.37446     -238185.31      0             -232391.44      16202.8        1396204.7    
     91500   705.7043      -238205.29      0             -232367.33      16207.105      1396384.8    
     92000   700.50341     -238148.09      0             -232353.16      16354.513      1396564.1    
     92500   703.75918     -238173.48      0             -232351.62      16139.688      1396742.5    
     93000   700.78254     -238160.65      0             -232363.41      16052.739      1396920      
     93500   698.39294     -238162.16      0             -232384.69      15956.407      1397096.6    
     94000   698.16662     -238184.83      0             -232409.24      15755.974      1397272.4    
     94500   699.94646     -238220.66      0             -232430.34      15596.76       1397447.3    
     95000   692.43114     -238170.68      0             -232442.53      15717.083      1397621.3    
     95500   695.89281     -238198.65      0             -232441.86      15474.876      1397794.4    
     96000   697.92355     -238201.97      0             -232428.38      15552.973      1397966.6    
     96500   696.40277     -238166.14      0             -232405.13      15608.8        1398138      
     97000   702.26853     -238187.69      0             -232378.16      15432.512      1398308.5    
     97500   699.94891     -238144.01      0             -232353.66      15518.624      1398478.2    
     98000   702.32574     -238147.46      0             -232337.46      15436.394      1398647.2    
     98500   703.88437     -238156.02      0             -232333.12      15502.259      1398815.3    
     99000   703.0772      -238157.69      0             -232341.47      15329.154      1398982.8    
     99500   699.40019     -238145.18      0             -232359.38      15280.108      1399149.5    
    100000   699.23669     -238166.57      0             -232382.13      15170.358      1399315.4    
    100500   696.41995     -238164.52      0             -232403.37      15021.846      1399480.6    
    101000   698.75798     -238197.54      0             -232417.06      14941.012      1399645.1    
    101500   696.73543     -238183.43      0             -232419.67      14788.969      1399808.8    
    102000   698.9296      -238191.46      0             -232409.55      14711.019      1399971.7    
    102500   698.86549     -238170.59      0             -232389.21      14751.666      1400133.9    
    103000   697.81875     -238135.95      0             -232363.23      14866.447      1400295.4    
    103500   702.16804     -238147.33      0             -232338.63      14779.422      1400456.3    
    104000   703.94965     -238144.64      0             -232321.2       14789.06       1400616.4    
    104500   702.5316      -238126.51      0             -232314.81      14761.007      1400775.9    
    105000   703.26562     -238138.5       0             -232320.72      14593.218      1400934.8    
    105500   701.8236      -238143.09      0             -232337.24      14595.939      1401093.1    
    106000   698.70542     -238139.5       0             -232359.44      14412.139      1401250.7    
    106500   699.05679     -238163.98      0             -232381.02      14284.333      1401407.7    
    107000   696.47069     -238157.47      0             -232395.91      14105.323      1401564.1    
    107500   697.33927     -238168.62      0             -232399.87      14105.538      1401719.9    
    108000   696.4883      -238152.68      0             -232390.97      14038.514      1401875      
    108500   697.90716     -238145.48      0             -232372.03      14089.806      1402029.5    
    109000   704.01693     -238170.91      0             -232346.92      13967.818      1402183.4    
    109500   700.57342     -238117.63      0             -232322.13      14131.807      1402336.7    
    110000   700.14331     -238095.61      0             -232303.66      14357.749      1402489.5    
    110500   701.18541     -238096.43      0             -232295.86      14217.33       1402641.8    
    111000   703.19984     -238117.31      0             -232300.07      13919.882      1402793.6    
    111500   699.45206     -238101.31      0             -232315.08      14106.864      1402944.8    
    112000   701.99443     -238143.18      0             -232335.92      13823.953      1403095.6    
    112500   697.83489     -238129.77      0             -232356.92      13695.634      1403245.8    
    113000   700.47612     -238166.96      0             -232372.26      13378.62       1403395.5    
    113500   695.00671     -238127.1       0             -232377.64      13634.393      1403544.7    
    114000   697.81212     -238143.63      0             -232370.96      13481.728      1403693.3    
    114500   701.52467     -238156.97      0             -232353.6       13391.263      1403841.4    
    115000   696.79464     -238093.76      0             -232329.52      13620.625      1403989.1    
    115500   698.67537     -238084.32      0             -232304.51      13565.417      1404136.2    
    116000   704.16731     -238110.51      0             -232285.27      13430.183      1404282.9    
    116500   701.4756      -238079         0             -232276.03      13543.324      1404429.2    
    117000   701.27448     -238079.73      0             -232278.42      13396.003      1404575      
    117500   700.75027     -238088.68      0             -232291.71      13528.557      1404720.4    
    118000   704.03471     -238136.22      0             -232312.08      13131.021      1404865.4    
    118500   699.52119     -238120.38      0             -232333.58      13031.657      1405009.9    
    119000   696.69151     -238113.61      0             -232350.21      13090.333      1405154      
    119500   696.23936     -238116.5       0             -232356.85      12993.088      1405297.6    
    120000   697.319       -238120.48      0             -232351.9       12906.731      1405440.8    
    120500   698.64904     -238116.24      0             -232336.65      12842.067      1405583.5    
    121000   702.02472     -238122.01      0             -232314.5       12886.155      1405725.8    
    121500   698.51361     -238069.19      0             -232290.73      13056.671      1405867.7    
    122000   703.93317     -238094.59      0             -232271.29      12849.058      1406009.2    
    122500   705.12174     -238093.76      0             -232260.63      12713.17       1406150.4    
    123000   703.33973     -238079.39      0             -232261         12832.787      1406291.1    
    123500   702.01495     -238079.34      0             -232271.91      12646.144      1406431.4    
    124000   700.53035     -238085.09      0             -232289.94      12643.953      1406571.4    
    124500   697.86323     -238083.06      0             -232309.97      12585.968      1406711      
    125000   698.23067     -238102.17      0             -232326.04      12536.783      1406850.2    
    125500   696.30642     -238094.31      0             -232334.1       12370.987      1406988.9    
    126000   696.91453     -238096.52      0             -232331.28      12452.454      1407127.3    
    126500   698.61235     -238097.36      0             -232318.07      12313.562      1407265.2    
    127000   696.8393      -238061.71      0             -232297.1       12477.158      1407402.8    
    127500   699.74534     -238062.65      0             -232273.99      12478.87       1407540      
    128000   703.26066     -238071.7       0             -232253.96      12287.292      1407676.8    
    128500   700.97821     -238041         0             -232242.15      12363.254      1407813.3    
    129000   702.65664     -238053.7       0             -232240.96      12377.27       1407949.5    
    129500   701.5187      -238053.87      0             -232250.55      12269.381      1408085.4    
    130000   700.24561     -238060.32      0             -232267.52      12148.695      1408220.9    
    130500   698.6809      -238066.93      0             -232287.08      12007.6        1408356.1    
    131000   698.32361     -238080.68      0             -232303.78      11896.216      1408490.9    
    131500   695.28716     -238065.27      0             -232313.49      11775.175      1408625.3    
    132000   697.95961     -238086.56      0             -232312.68      11758.604      1408759.4    
    132500   698.27054     -238077.89      0             -232301.43      11846.846      1408893.1    
    133000   697.6546      -238053.45      0             -232282.09      11942.757      1409026.4    
    133500   700.8886      -238057.26      0             -232259.15      11747.418      1409159.4    
    134000   700.10476     -238029.95      0             -232238.32      11903.042      1409292.1    
    134500   703.8761      -238046.94      0             -232224.11      11885.508      1409424.4    
    135000   703.80151     -238042.13      0             -232219.92      11796.123      1409556.5    
    135500   703.26272     -238043.87      0             -232226.12      11763.989      1409688.2    
    136000   704.43041     -238068.69      0             -232241.28      11417.763      1409819.7    
    136500   699.56545     -238047.95      0             -232260.78      11495.204      1409950.8    
    137000   697.11675     -238045.9       0             -232278.99      11479.993      1410081.6    
    137500   698.37791     -238068.13      0             -232290.79      11378.192      1410212.1    
    138000   701.03382     -238092.18      0             -232292.86      11198.129      1410342.2    
    138500   697.60236     -238055.53      0             -232284.6       11312.203      1410472      
    139000   701.44453     -238070.23      0             -232267.51      11219.937      1410601.5    
    139500   698.82866     -238026.5       0             -232245.43      11323.163      1410730.6    
    140000   702.39294     -238034.42      0             -232223.86      11342.897      1410859.5    
    140500   701.44605     -238010.7       0             -232207.98      11314.945      1410988      
    141000   702.78237     -238015.19      0             -232201.4       11278.118      1411116.3    
    141500   703.22404     -238023.13      0             -232205.69      11213.745      1411244.2    
    142000   702.54418     -238031.31      0             -232219.5       11140.957      1411371.9    
    142500   701.23705     -238039.54      0             -232238.55      11060.162      1411499.3    
    143000   700.52342     -238052.33      0             -232257.24      10919.256      1411626.4    
    143500   699.79689     -238059.67      0             -232270.59      10814.728      1411753.2    
    144000   698.34645     -238051.64      0             -232274.55      10819.829      1411879.7    
    144500   697.7686      -238039.39      0             -232267.09      10771.772      1412005.8    
    145000   700.80242     -238047.53      0             -232250.13      10726.381      1412131.6    
    145500   699.04158     -238010.92      0             -232228.09      10816.433      1412257.1    
    146000   702.64681     -238019.24      0             -232206.58      10887.795      1412382.3    
    146500   701.32992     -237992.43      0             -232190.66      10951.449      1412507.2    
    147000   702.82985     -237997.99      0             -232183.82      10846.877      1412631.9    
    147500   702.07745     -237995.52      0             -232187.57      10873.876      1412756.3    
    148000   701.37722     -238002.43      0             -232200.27      10629.856      1412880.4    
    148500   697.85686     -237991.35      0             -232218.31      10706.548      1413004.3    
    149000   697.21044     -238004.19      0             -232236.51      10649.482      1413127.8    
    149500   698.86844     -238030.47      0             -232249.06      10403.186      1413251.1    
    150000   696.51203     -238014.79      0             -232252.88      10493.381      1413374      
    150500   697.68197     -238018.33      0             -232246.74      10357.001      1413496.7    
    151000   700.19062     -238023.8       0             -232231.46      10181.777      1413619      
    151500   700.40945     -238005.44      0             -232211.29      10308.314      1413741      
    152000   703.01668     -238006.12      0             -232190.4       10308.155      1413862.7    
    152500   699.6598      -237961.82      0             -232173.87      10527.04       1413984.1    
    153000   705.48129     -238002.01      0             -232165.9       10220.469      1414105.3    
    153500   704.51724     -237996.02      0             -232167.89      10231.031      1414226.2    
    154000   702.68987     -237991.72      0             -232178.7       10299.753      1414346.9    
    154500   699.86146     -237984.51      0             -232194.89      10211.449      1414467.3    
    155000   699.61582     -237999.58      0             -232212         10031.64       1414587.4    
    155500   699.67192     -238012.99      0             -232224.94      9805.6277      1414707.2    
    156000   698.71885     -238010.19      0             -232230.03      9842.3467      1414826.8    
    156500   696.9897      -237992.2       0             -232226.34      9920.5623      1414946      
    157000   699.16853     -237997.36      0             -232213.48      9938.5871      1415064.9    
    157500   701.72334     -237999.9       0             -232194.88      9800.2989      1415183.5    
    158000   702.20661     -237984.31      0             -232175.29      9809.298       1415301.9    
    158500   702.11378     -237967.15      0             -232158.9       9844.7179      1415419.9    
    159000   702.75581     -237963.08      0             -232149.51      9824.6217      1415537.8    
    159500   703.51676     -237969.43      0             -232149.58      9836.6101      1415655.3    
    160000   702.34419     -237968.61      0             -232158.45      9793.1703      1415772.6    
    160500   702.04195     -237981.03      0             -232173.37      9775.4548      1415889.7    
    161000   699.96698     -237980.76      0             -232190.27      9623.5069      1416006.5    
    161500   697.44132     -237973.62      0             -232204.02      9633.892       1416123      
    162000   697.48671     -237980.74      0             -232210.76      9564.3998      1416239.2    
    162500   700.14686     -237999.85      0             -232207.87      9288.5436      1416355.2    
    163000   698.83612     -237977.8       0             -232196.66      9354.6112      1416470.8    
    163500   699.91934     -237969.17      0             -232179.08      9445.767       1416586.2    
    164000   702.31699     -237969.37      0             -232159.44      9446.9573      1416701.3    
    164500   701.69854     -237947.07      0             -232142.25      9454.5323      1416816.1    
    165000   703.49164     -237951.35      0             -232131.7       9472.2068      1416930.7    
    165500   700.61652     -237926.11      0             -232130.25      9351.4439      1417045      
    166000   702.93066     -237952.59      0             -232137.58      9327.3668      1417159.1    
    166500   700.41262     -237945.98      0             -232151.8       9339.9305      1417272.9    
    167000   698.3958      -237945.57      0             -232168.07      9269.6454      1417386.5    
    167500   696.94491     -237946.91      0             -232181.42      9133.1994      1417499.8    
    168000   696.38081     -237949.42      0             -232188.59      9062.8013      1417612.8    
    168500   699.2472      -237971.72      0             -232187.19      9031.9339      1417725.5    
    169000   699.18411     -237960.89      0             -232176.87      9054.2705      1417838      
    169500   698.92431     -237942.05      0             -232160.19      8943.1015      1417950.1    
    170000   700.91425     -237939.6       0             -232141.28      8949.5106      1418062      
    170500   701.59617     -237928.57      0             -232124.6       9007.8525      1418173.7    
    171000   703.39598     -237932.75      0             -232113.9       9126.3369      1418285      
    171500   703.04252     -237927.66      0             -232111.73      8922.0535      1418396.2    
    172000   701.69858     -237923.31      0             -232118.49      8919.5496      1418507.1    
    172500   699.93941     -237922.31      0             -232132.05      8886.9526      1418617.8    
    173000   698.84077     -237929.66      0             -232148.49      8811.6734      1418728.2    
    173500   696.19997     -237922.66      0             -232163.33      8792.0946      1418838.3    
    174000   697.39074     -237940.99      0             -232171.81      8709.8514      1418948.2    
    174500   696.66179     -237934.38      0             -232171.23      8704.6959      1419057.8    
    175000   699.45463     -237947.51      0             -232161.25      8500.2798      1419167.1    
    175500   702.03694     -237951.75      0             -232144.13      8626.6017      1419276.1    
    176000   699.20272     -237908.15      0             -232123.98      8681.8017      1419384.9    
    176500   701.67498     -237910.38      0             -232105.76      8743.534       1419493.4    
    177000   700.84001     -237891.41      0             -232093.7       8804.3654      1419601.7    
    177500   701.03012     -237889.87      0             -232090.59      8726.9066      1419709.7    
    178000   697.65204     -237868.35      0             -232097.01      8795.3496      1419817.5    
    178500   703.2559      -237928.43      0             -232110.73      8494.97        1419925.1    
    179000   701.92596     -237934.76      0             -232128.07      8333.462       1420032.5    
    179500   697.67764     -237915.66      0             -232144.1       8455.961       1420139.5    
    180000   699.96968     -237944.46      0             -232153.95      8122.3847      1420246.3    
    180500   696.49452     -237916.87      0             -232155.1       8316.9134      1420352.9    
    181000   696.34858     -237906.75      0             -232146.19      8263.627       1420459.1    
    181500   700.94355     -237927.5       0             -232128.93      8226.1578      1420565.1    
    182000   700.45736     -237902.66      0             -232108.11      8263.7901      1420670.8    
    182500   700.04594     -237880         0             -232088.85      8264.6376      1420776.3    
    183000   701.50417     -237878.39      0             -232075.18      8351.4516      1420881.6    
    183500   701.69358     -237875.8       0             -232071.03      8251.675       1420986.6    
    184000   701.34656     -237878.63      0             -232076.73      8123.9462      1421091.4    
    184500   700.16365     -237882.78      0             -232090.66      8173.3559      1421196      
    185000   699.55255     -237895.25      0             -232108.18      8057.6966      1421300.4    
    185500   698.30593     -237900.99      0             -232124.24      8019.9313      1421404.5    
    186000   698.90129     -237916.09      0             -232134.42      7879.3063      1421508.3    
    186500   696.21075     -237895.16      0             -232135.75      7897.4176      1421611.9    
    187000   696.84993     -237892.34      0             -232127.63      7964.6599      1421715.2    
    187500   702.1003      -237919.65      0             -232111.51      7726.913       1421818.2    
    188000   699.92625     -237882.01      0             -232091.85      7867.7881      1421921      
    188500   701.64938     -237876.99      0             -232072.58      7919.6006      1422023.6    
    189000   703.32624     -237877.03      0             -232058.75      7971.9276      1422125.9    
    189500   703.33925     -237871.86      0             -232053.47      7884.8962      1422228.1    
    190000   700.09385     -237849.23      0             -232057.69      7973.7348      1422330      
    190500   701.76042     -237874.89      0             -232069.56      7887.5632      1422431.7    
    191000   702.10052     -237893.71      0             -232085.57      7612.6323      1422533.2    
    191500   701.47272     -237904.67      0             -232101.72      7538.2654      1422634.4    
    192000   698.5581      -237892.28      0             -232113.44      7650.8626      1422735.4    
    192500   699.51781     -237904.15      0             -232117.38      7412.193       1422836.1    
    193000   696.08132     -237870.01      0             -232111.66      7513.5169      1422936.6    
    193500   697.66478     -237869.09      0             -232097.64      7541.1317      1423036.8    
    194000   698.90914     -237859.75      0             -232078.01      7583.3315      1423136.8    
    194500   702.82152     -237872.18      0             -232058.07      7551.5238      1423236.5    
    195000   704.1942      -237868.26      0             -232042.8       7471.4372      1423336      
    195500   698.09291     -237810.21      0             -232035.22      7732.7809      1423435.3    
    196000   703.05908     -237853.61      0             -232037.54      7544.7241      1423534.4    
    196500   699.53496     -237835.58      0             -232048.66      7506.2096      1423633.3    
    197000   698.52816     -237843.59      0             -232065         7334.282       1423731.9    
    197500   699.17899     -237866         0             -232082.03      7324.8336      1423830.4    
    198000   696.59323     -237857.22      0             -232094.64      7196.393       1423928.5    
    198500   698.63978     -237879.01      0             -232099.5       7031.4148      1424026.5    
    199000   697.8804      -237868.04      0             -232094.81      7176.6821      1424124.1    
    199500   698.72512     -237862.08      0             -232081.86      7174.919       1424221.5    
    200000   700.49001     -237858         0             -232063.18      7172.7977      1424318.7    
    200500   696.56435     -237805.71      0             -232043.37      7282.7433      1424415.7    
    201000   701.51757     -237830.46      0             -232027.14      7267.3459      1424512.4    
    201500   702.05367     -237826.02      0             -232018.27      7244.7123      1424608.9    
    202000   701.66943     -237823.14      0             -232018.56      7236.6924      1424705.2    
    202500   703.4179      -237846.94      0             -232027.9       7053.4347      1424801.3    
    203000   700.71592     -237839.96      0             -232043.28      7171.7149      1424897.2    
    203500   699.99989     -237850.93      0             -232060.17      6851.2552      1424992.8    
    204000   695.86139     -237830.4       0             -232073.87      7036.6359      1425088.3    
    204500   697.83423     -237853.43      0             -232080.58      6812.1495      1425183.5    
    205000   698.31925     -237854.75      0             -232077.89      6904.4172      1425278.4    
    205500   700.02718     -237856.93      0             -232065.94      6842.7761      1425373.1    
    206000   701.29772     -237848.73      0             -232047.23      6786.4491      1425467.6    
    206500   701.11955     -237826.94      0             -232026.92      6926.3646      1425561.8    
    207000   703.06807     -237825.86      0             -232009.72      6943.8029      1425655.9    
    207500   702.97121     -237815.17      0             -231999.83      6826.0266      1425749.8    
    208000   703.07878     -237815.52      0             -231999.29      6913.6394      1425843.4    
    208500   702.93287     -237822.68      0             -232007.65      6795.3462      1425936.9    
    209000   702.60347     -237835.36      0             -232023.05      6751.4586      1426030.2    
    209500   701.77394     -237845.93      0             -232040.49      6469.5885      1426123.3    
    210000   700.03098     -237846.37      0             -232055.35      6413.8402      1426216.2    
    210500   696.58101     -237825.75      0             -232063.27      6490.6319      1426308.8    
    211000   696.36444     -237822.51      0             -232061.82      6673.275       1426401.2    
    211500   699.60341     -237838.12      0             -232050.64      6475.3593      1426493.3    
    212000   701.51832     -237836.09      0             -232032.76      6568.5122      1426585.2    
    212500   700.19287     -237804.57      0             -232012.21      6640.1249      1426676.9    
    213000   698.3561      -237771.41      0             -231994.24      6899.3719      1426768.4    
    213500   702.40674     -237793.77      0             -231983.09      6581.7228      1426859.7    
    214000   701.44631     -237783.94      0             -231981.21      6574.5155      1426950.8    
    214500   701.04882     -237788.64      0             -231989.2       6483.4175      1427041.8    
    215000   701.32001     -237806.03      0             -232004.35      6423.9567      1427132.5    
    215500   697.37463     -237791.05      0             -232022         6441.0723      1427223      
    216000   699.46133     -237823.44      0             -232037.13      6244.4767      1427313.4    
    216500   697.03358     -237811.67      0             -232045.45      6329.1024      1427403.4    
    217000   695.45141     -237797.73      0             -232044.6       6241.7885      1427493.3    
    217500   697.31991     -237802.71      0             -232034.12      6287.1311      1427582.9    
    218000   697.86093     -237789.49      0             -232016.42      6283.7426      1427672.3    
    218500   702.03278     -237803.75      0             -231996.17      6108.5443      1427761.4    
    219000   703.16674     -237795.64      0             -231978.68      6375.8423      1427850.4    
    219500   703.44758     -237786.32      0             -231967.03      6264.3489      1427939.1    
    220000   703.5002      -237784.36      0             -231964.64      6129.5632      1428027.7    
    220500   701.98637     -237778.97      0             -231971.78      6303.6842      1428116.1    
    221000   701.2223      -237786.88      0             -231986         6098.7739      1428204.3    
    221500   700.08764     -237794.74      0             -232003.25      6146.5625      1428292.3    
    222000   697.1995      -237786.12      0             -232018.52      6167.9234      1428380.1    
    222500   695.66217     -237782.41      0             -232027.53      5998.628       1428467.6    
    223000   697.96183     -237801.51      0             -232027.61      5879.6245      1428555      
    223500   696.91833     -237783.4       0             -232018.13      6029.9158      1428642.1    
    224000   698.49252     -237779.85      0             -232001.55      6012.3454      1428728.9    
    224500   700.09271     -237773.2       0             -231981.67      5998.4884      1428815.6    
    225000   700.66897     -237760.27      0             -231963.98      6092.7138      1428902      
    225500   701.81725     -237758.26      0             -231952.46      6078.5507      1428988.3    
    226000   703.54383     -237769.2       0             -231949.12      5964.541       1429074.4    
    226500   701.59745     -237758.88      0             -231954.9       6000.422       1429160.3    
    227000   703.12271     -237784.84      0             -231968.24      5847.4284      1429246      
    227500   699.25226     -237769.72      0             -231985.15      5887.3509      1429331.6    
    228000   695.37355     -237753.4       0             -232000.91      5845.8928      1429416.9    
    228500   696.44952     -237771.74      0             -232010.34      5682.0831      1429502      
    229000   694.66195     -237757.71      0             -232011.1       5784.2006      1429586.9    
    229500   697.78235     -237775.06      0             -232002.64      5860.8842      1429671.6    
    230000   700.4265      -237780.5       0             -231986.21      5582.7663      1429756      
    230500   703.87001     -237789.69      0             -231966.92      5653.0782      1429840.3    
    231000   699.37611     -237734.91      0             -231949.31      5731.1883      1429924.3    
    231500   701.92117     -237743.7       0             -231937.04      5767.7415      1430008.2    
    232000   703.19986     -237750.36      0             -231933.13      5728.9191      1430091.8    
    232500   701.36719     -237740.24      0             -231938.17      5716.595       1430175.4    
    233000   699.02061     -237733.04      0             -231950.38      5574.2426      1430258.7    
    233500   698.31349     -237742.92      0             -231966.1       5540.3373      1430341.8    
    234000   698.77205     -237761.23      0             -231980.62      5493.3612      1430424.7    
    234500   699.28188     -237775.21      0             -231990.39      5426.9153      1430507.5    
    235000   697.10293     -237759.44      0             -231992.64      5341.1883      1430590      
    235500   698.61396     -237765.59      0             -231986.29      5436.4376      1430672.2    
    236000   698.80754     -237753.02      0             -231972.12      5440.4918      1430754.3    
    236500   698.18932     -237729.23      0             -231953.44      5604.061       1430836.2    
    237000   700.50768     -237730.09      0             -231935.13      5538.3959      1430917.9    
    237500   701.44074     -237724.92      0             -231922.24      5592.5626      1430999.4    
    238000   703.44485     -237736.64      0             -231917.38      5345.4734      1431080.7    
    238500   701.70666     -237727.04      0             -231922.16      5441.0587      1431161.9    
    239000   699.04367     -237717         0             -231934.15      5587.8369      1431242.9    
    239500   700.93795     -237748.14      0             -231949.61      5238.8437      1431323.7    
    240000   697.55778     -237734.77      0             -231964.21      5344.245       1431404.3    
    240500   695.58969     -237728.38      0             -231974.1       5188.8308      1431484.7    
    241000   696.48024     -237737.66      0             -231976.02      5200.5469      1431564.8    
    241500   698.82998     -237750.44      0             -231969.36      5043.6877      1431644.7    
    242000   700.46623     -237749.89      0             -231955.27      5089.8997      1431724.5    
    242500   699.55144     -237724.85      0             -231937.8       5275.3169      1431804      
    243000   702.04364     -237728.61      0             -231920.94      5275.7743      1431883.3    
    243500   701.36205     -237710.86      0             -231908.83      5395.3406      1431962.5    
    244000   702.18156     -237712.46      0             -231903.65      5188.1729      1432041.5    
    244500   701.92109     -237713.99      0             -231907.34      5156.2243      1432120.3    
    245000   700.07723     -237709.8       0             -231918.39      5241.6442      1432199      
    245500   702.44498     -237743.94      0             -231932.95      4940.3833      1432277.5    
    246000   698.16411     -237722.79      0             -231947.22      5093.5387      1432355.7    
    246500   698.89178     -237738.42      0             -231956.82      4918.6869      1432433.8    
    247000   699.25838     -237744.08      0             -231959.46      4803.9713      1432511.7    
    247500   696.38507     -237714.5       0             -231953.64      4866.7045      1432589.3    
    248000   699.07159     -237723.26      0             -231940.18      4923.7301      1432666.8    
    248500   700.52204     -237718.05      0             -231922.96      4847.5105      1432744      
    249000   700.49511     -237700.84      0             -231905.98      4983.9006      1432821.1    
    249500   700.13312     -237685.14      0             -231893.28      5012.0323      1432898      
    250000   700.95981     -237686.49      0             -231887.78      5080.4532      1432974.7    
    250500   700.26788     -237683.58      0             -231890.6       5139.837       1433051.3    
    251000   700.45442     -237695.45      0             -231900.93      4922.999       1433127.7    
    251500   698.68976     -237695.61      0             -231915.68      4948.5382      1433203.9    
    252000   702.1983      -237739.05      0             -231930.1       4507.9593      1433279.9    
    252500   700.14965     -237732.89      0             -231940.89      4693.0465      1433355.8    
    253000   698.85226     -237725.53      0             -231944.26      4645.2252      1433431.4    
    253500   697.16546     -237706.56      0             -231939.24      4664.634       1433506.9    
    254000   696.09918     -237685.12      0             -231926.62      4786.3539      1433582.2    
    254500   698.18166     -237684.96      0             -231909.24      4846.7929      1433657.2    
    255000   701.15784     -237692.68      0             -231892.34      4642.1106      1433732.1    
    255500   698.16438     -237655.26      0             -231879.68      4839.7232      1433806.8    
    256000   703.10474     -237690.1       0             -231873.65      4645.7898      1433881.3    
    256500   704.78637     -237706.16      0             -231875.8       4668.0121      1433955.7    
    257000   701.47505     -237688.59      0             -231885.62      4647.329       1434029.9    
    257500   701.39656     -237702.29      0             -231899.98      4604.5476      1434104      
    258000   697.21848     -237681.96      0             -231914.2       4542.6387      1434177.8    
    258500   700.28713     -237717.53      0             -231924.39      4510.494       1434251.5    
    259000   698.31599     -237704.46      0             -231927.63      4482.7311      1434325      
    259500   700.09701     -237714.45      0             -231922.88      4384.4076      1434398.3    
    260000   701.16456     -237710.97      0             -231910.58      4446.1151      1434471.4    
    260500   696.64812     -237657.04      0             -231894         4607.239       1434544.3    
    261000   700.26027     -237670.77      0             -231877.86      4407.3999      1434617      
    261500   699.26563     -237650.87      0             -231866.18      4606.2564      1434689.6    
    262000   700.02371     -237651.62      0             -231860.66      4574.6751      1434762      
    262500   702.44476     -237673.84      0             -231862.85      4462.7529      1434834.2    
    263000   702.02367     -237680.11      0             -231872.61      4416.6436      1434906.3    
    263500   701.96948     -237694.89      0             -231887.84      4387.6123      1434978.2    
    264000   698.03591     -237677.32      0             -231902.8       4264.5509      1435049.9    
    264500   698.79571     -237693.22      0             -231912.42      4184.3648      1435121.5    
    265000   697.41558     -237683.55      0             -231914.16      4222.3884      1435192.8    
    265500   696.66102     -237668.64      0             -231905.5       4327.3162      1435264      
    266000   699.63093     -237670.1       0             -231882.39      4268.8149      1435335      
    266500   703.23625     -237674.66      0             -231857.13      4325.7914      1435405.7    
    267000   704.55963     -237676.07      0             -231847.59      4148.7563      1435476.4    
    267500   701.42604     -237651.73      0             -231849.17      4333.7443      1435546.9    
    268000   702.25102     -237665.61      0             -231856.23      4255.5939      1435617.2    
    268500   699.74091     -237655.26      0             -231866.64      4178.4571      1435687.4    
    269000   698.87931     -237659.17      0             -231877.68      4271.7077      1435757.4    
    269500   698.74262     -237666.72      0             -231886.35      4039.7088      1435827.2    
    270000   700.27147     -237683.98      0             -231890.97      4043.8208      1435896.8    
    270500   694.61187     -237636.79      0             -231890.6       4167.1901      1435966.3    
    271000   697.17661     -237644.76      0             -231877.35      4044.7085      1436035.5    
    271500   703.15868     -237663.46      0             -231846.57      3973.5037      1436104.6    
    272000   703.29562     -237644.81      0             -231826.79      4303.9405      1436173.5    
    272500   701.61841     -237626.01      0             -231821.86      4150.5266      1436242.3    
    273000   702.41406     -237639.92      0             -231829.18      4134.1263      1436310.9    
    273500   703.31874     -237664.4       0             -231846.18      3979.0348      1436379.4    
    274000   700.09622     -237657.07      0             -231865.51      4005.0046      1436447.7    
    274500   699.54393     -237665.24      0             -231878.25      3893.1037      1436515.8    
    275000   697.10032     -237649.85      0             -231883.07      3955.2816      1436583.7    
    275500   699.05801     -237663.51      0             -231880.54      3812.8173      1436651.5    
    276000   699.80886     -237661.86      0             -231872.68      3847.9085      1436719      
    276500   699.58805     -237647.44      0             -231860.09      3897.4472      1436786.4    
    277000   700.85341     -237644.01      0             -231846.19      3920.0143      1436853.5    
    277500   699.80804     -237624.46      0             -231835.28      3877.1466      1436920.5    
    278000   701.47567     -237633.31      0             -231830.34      3952.147       1436987.4    
    278500   699.08404     -237614.43      0             -231831.24      4007.514       1437054      
    279000   700.33385     -237627.61      0             -231834.09      3928.2189      1437120.6    
    279500   697.45443     -237607.5       0             -231837.8       3918.206       1437186.9    
    280000   698.83685     -237624.29      0             -231843.15      3899.2682      1437253.1    
    280500   701.75758     -237655.37      0             -231850.07      3835.3745      1437319.2    
    281000   698.76156     -237637.67      0             -231857.15      3717.2902      1437385      
    281500   700.96973     -237661.11      0             -231862.32      3595.9175      1437450.7    
    282000   698.80654     -237644.28      0             -231863.39      3636.1228      1437516.2    
    282500   698.33687     -237634.96      0             -231857.95      3740.3424      1437581.5    
    283000   698.66563     -237622.2       0             -231842.48      3650.3195      1437646.7    
    283500   702.71077     -237634.16      0             -231820.97      3710.433       1437711.6    
    284000   703.3789      -237624.1       0             -231805.39      3553.1113      1437776.4    
    284500   699.77394     -237590.07      0             -231801.18      3898.9524      1437841      
    285000   701.02983     -237605.43      0             -231806.14      3738.1013      1437905.5    
    285500   701.87499     -237625.64      0             -231819.37      3552.7954      1437969.8    
    286000   699.14671     -237622.03      0             -231838.32      3669.4146      1438033.9    
    286500   697.93749     -237629.17      0             -231855.47      3527.9188      1438097.9    
    287000   698.66931     -237642.25      0             -231862.49      3362.0569      1438161.7    
    287500   696.79528     -237624.71      0             -231860.46      3646.4934      1438225.2    
    288000   698.89474     -237636.37      0             -231854.75      3374.407       1438288.6    
    288500   699.5048      -237632.17      0             -231845.5       3533.9201      1438351.8    
    289000   700.2712      -237626.03      0             -231833.03      3476.807       1438414.8    
    289500   699.55408     -237606.85      0             -231819.77      3674.558       1438477.7    
    290000   697.1411      -237575.45      0             -231808.34      3782.8721      1438540.3    
    290500   698.89589     -237582.37      0             -231800.74      3623.1556      1438602.9    
    291000   701.51446     -237601.55      0             -231798.26      3613.9114      1438665.3    
    291500   702.41575     -237613.34      0             -231802.59      3429.4056      1438727.5    
    292000   699.21895     -237604.03      0             -231819.73      3488.3044      1438789.6    
    292500   694.55085     -237592         0             -231846.32      3513.4709      1438851.5    
    293000   692.30441     -237589.09      0             -231861.99      3378.2821      1438913.3    
    293500   696.40117     -237624.01      0             -231863.02      3272.5295      1438974.8    
    294000   698.07679     -237626.72      0             -231851.87      3355.7497      1439036.2    
    294500   699.31217     -237617.75      0             -231832.68      3311.4765      1439097.3    
    295000   698.92595     -237599.01      0             -231817.14      3211.4103      1439158.3    
    295500   699.68335     -237598.08      0             -231809.94      3344.4958      1439219.1    
    296000   701.26807     -237607.77      0             -231806.51      3294.7797      1439279.8    
    296500   700.9788      -237603.74      0             -231804.88      3195.921       1439340.3    
    297000   702.59861     -237617.04      0             -231804.78      3308.6887      1439400.6    
    297500   700.3876      -237599.66      0             -231805.69      3274.4703      1439460.8    
    298000   697.18874     -237575.11      0             -231807.61      3332.4769      1439520.9    
    298500   702.08494     -237620.19      0             -231812.17      3132.4865      1439580.8    
    299000   699.71029     -237608.11      0             -231819.75      3048.1913      1439640.5    
    299500   697.44185     -237596.87      0             -231827.26      3145.1398      1439700.1    
    300000   695.87619     -237587.69      0             -231831.04      3348.9358      1439759.6    
    300500   699.5051      -237613.61      0             -231826.94      3041.2294      1439818.8    
    301000   697.81297     -237586.23      0             -231813.56      3187.1272      1439877.9    
    301500   700.4087      -237588.22      0             -231794.08      3147.6885      1439936.8    
    302000   699.78322     -237566.68      0             -231777.71      3252.7857      1439995.5    
    302500   705.82117     -237609.03      0             -231770.11      2968.5012      1440054.1    
    303000   699.48836     -237557.08      0             -231770.55      3376.0272      1440112.6    
    303500   699.65355     -237565.88      0             -231777.99      3200.7298      1440170.9    
    304000   699.02464     -237578.22      0             -231795.53      3305.4412      1440229.1    
    304500   698.21463     -237600.39      0             -231824.4       2901.9377      1440287.2    
    305000   697.49191     -237613.94      0             -231843.92      2705.6938      1440345      
    305500   697.48576     -237613.63      0             -231843.67      2849.0598      1440402.7    
    306000   696.7624      -237598.47      0             -231834.49      2836.252       1440460.2    
    306500   697.44718     -237590.1       0             -231820.46      3014.6951      1440517.6    
    307000   698.16514     -237579.86      0             -231804.27      2949.8681      1440574.7    
    307500   701.48644     -237592.68      0             -231789.62      2897.2441      1440631.7    
    308000   700.56727     -237574.06      0             -231778.6       2979.7418      1440688.5    
    308500   700.29948     -237564.91      0             -231771.66      3133.0725      1440745.2    
    309000   701.20857     -237569.33      0             -231768.57      2984.2401      1440801.8    
    309500   700.74547     -237566.06      0             -231769.13      2965.7914      1440858.1    
    310000   700.32297     -237568.69      0             -231775.25      3013.6369      1440914.4    
    310500   697.87142     -237567.18      0             -231794.03      2760.2427      1440970.5    
    311000   695.63136     -237573.56      0             -231818.94      2780.6779      1441026.5    
    311500   694.64009     -237577.69      0             -231831.26      2833.3568      1441082.3    
    312000   695.70566     -237583.68      0             -231828.44      2912.7076      1441137.8    
    312500   696.06036     -237570.27      0             -231812.1       2813.0599      1441193.2    
    313000   699.43445     -237576.14      0             -231790.05      2868.0023      1441248.4    
    313500   700.00597     -237566.65      0             -231775.83      2841.8142      1441303.5    
    314000   701.5206      -237573.16      0             -231769.82      2783.9493      1441358.4    
    314500   702.51413     -237579.19      0             -231767.62      2711.3952      1441413.2    
    315000   701.86701     -237573.91      0             -231767.7       2740.9881      1441467.8    
    315500   698.12369     -237544.71      0             -231769.47      2830.3043      1441522.3    
    316000   699.60101     -237559.87      0             -231772.41      2658.1589      1441576.6    
    316500   699.31717     -237562.99      0             -231777.87      2758.7788      1441630.7    
    317000   697.22777     -237553.55      0             -231785.72      2594.4477      1441684.7    
    317500   697.62356     -237565.31      0             -231794.21      2663.0387      1441738.6    
    318000   696.95246     -237564.29      0             -231798.74      2729.5218      1441792.3    
    318500   700.0613      -237585.59      0             -231794.32      2496.3202      1441845.8    
    319000   697.57309     -237549.48      0             -231778.8       2612.7577      1441899.2    
    319500   702.01956     -237564.62      0             -231757.15      2589.2239      1441952.4    
    320000   698.03992     -237516.35      0             -231741.8       2796.3249      1442005.4    
    320500   703.98056     -237558.92      0             -231735.22      2648.9114      1442058.4    
    321000   701.87886     -237542.59      0             -231736.29      2573.8363      1442111.2    
    321500   698.83536     -237525.01      0             -231743.89      2531.129       1442163.8    
    322000   697.76754     -237530.37      0             -231758.08      2596.2474      1442216.4    
    322500   697.92909     -237553.02      0             -231779.39      2466.0874      1442268.8    
    323000   697.38669     -237573.18      0             -231804.04      2350.0953      1442321      
    323500   696.59647     -237580.08      0             -231817.47      2337.8139      1442373      
    324000   693.81792     -237553.71      0             -231814.09      2573.3628      1442424.8    
    324500   696.99825     -237562.8       0             -231796.86      2343.0884      1442476.5    
    325000   696.82059     -237547.04      0             -231782.58      2507.4302      1442527.9    
    325500   695.5552      -237529.05      0             -231775.05      2642.5569      1442579.2    
    326000   698.41212     -237542.84      0             -231765.21      2507.1803      1442630.4    
    326500   702.19286     -237561.06      0             -231752.16      2357.5965      1442681.4    
    327000   700.44689     -237533.18      0             -231738.72      2530.4296      1442732.2    
    327500   698.25882     -237504.7       0             -231728.34      2714.7427      1442783      
    328000   700.58519     -237517.92      0             -231722.32      2600.5739      1442833.6    
    328500   700.1386      -237514.85      0             -231722.94      2695.6145      1442884.1    
    329000   700.58458     -237527.63      0             -231732.03      2603.2903      1442934.4    
    329500   699.75617     -237538.39      0             -231749.64      2394.4864      1442984.7    
    330000   697.19576     -237537.92      0             -231770.35      2418.5559      1443034.8    
    330500   697.1793      -237549.8       0             -231782.37      2256.1579      1443084.7    
    331000   695.74237     -237538.1       0             -231782.56      2343.2972      1443134.5    
    331500   695.84558     -237528.52      0             -231772.12      2214.1037      1443184.1    
    332000   699.25235     -237535.68      0             -231751.1       2325.4201      1443233.5    
    332500   699.30832     -237515.97      0             -231730.93      2471.2399      1443282.8    
    333000   698.93048     -237506.48      0             -231724.56      2577.0073      1443331.9    
    333500   701.65785     -237529.42      0             -231724.95      2358.0982      1443381      
    334000   698.05516     -237503.04      0             -231728.36      2589.1454      1443429.8    
    334500   701.05422     -237533         0             -231733.51      2204.5         1443478.6    
    335000   698.28222     -237516.46      0             -231739.91      2332.5676      1443527.3    
    335500   699.19544     -237530.24      0             -231746.13      2229.8355      1443575.8    
    336000   697.53161     -237521.61      0             -231751.27      2316.9147      1443624.1    
    336500   696.25463     -237512.77      0             -231752.99      2272.0525      1443672.3    
    337000   700.53536     -237543.75      0             -231748.56      2116.9245      1443720.4    
    337500   700.96206     -237533.17      0             -231734.44      2233.1498      1443768.3    
    338000   701.54877     -237517.48      0             -231713.9       2348.024       1443816.1    
    338500   701.22722     -237498.92      0             -231698         2423.9312      1443863.8    
    339000   702.92865     -237506.85      0             -231691.86      2475.7208      1443911.3    
    339500   703.70879     -237517.59      0             -231696.15      2174.8855      1443958.8    
    340000   701.50443     -237515.08      0             -231711.87      2258.3061      1444006.2    
    340500   697.22994     -237503.77      0             -231735.92      2333.0264      1444053.4    
    341000   698.47866     -237530.83      0             -231752.66      2196.3651      1444100.5    
    341500   699.00302     -237538.22      0             -231755.7       2110.4213      1444147.5    
    342000   695.70253     -237506.75      0             -231751.54      2257.6282      1444194.3    
    342500   698.82129     -237524.32      0             -231743.31      2048.7         1444240.9    
    343000   699.27659     -237516.68      0             -231731.9       2142.6655      1444287.4    
    343500   699.36291     -237505.33      0             -231719.83      2064.0471      1444333.8    
    344000   700.03248     -237500.06      0             -231709.02      2139.9565      1444380      
    344500   698.36        -237478.32      0             -231701.12      2166.1085      1444426.1    
    345000   702.26746     -237506.65      0             -231697.13      2189.0075      1444472.1    
    345500   702.42736     -237508.47      0             -231697.63      2200.5303      1444518      
    346000   699.98016     -237499.96      0             -231709.36      2213.0818      1444563.7    
    346500   697.87377     -237507.16      0             -231733.98      2050.078       1444609.4    
    347000   698.30922     -237529.33      0             -231752.56      1937.9136      1444654.9    
    347500   694.86173     -237506.6       0             -231758.34      2052.7652      1444700.2    
    348000   697.18725     -237518.75      0             -231751.25      1871.9054      1444745.4    
    348500   696.97541     -237498.29      0             -231732.54      2121.2386      1444790.4    
    349000   700.16931     -237503.41      0             -231711.24      1959.2215      1444835.2    
    349500   701.30354     -237500.29      0             -231698.75      2043.559       1444880      
    350000   700.31896     -237487.77      0             -231694.37      1967.7887      1444924.6    
    350500   701.35361     -237497.08      0             -231695.11      2018.153       1444969.1    
    351000   699.63812     -237487.03      0             -231699.26      1909.2868      1445013.4    
    351500   701.02802     -237505.15      0             -231705.89      1904.5074      1445057.7    
    352000   699.46735     -237502.21      0             -231715.85      2040.6354      1445101.8    
    352500   696.36112     -237493.94      0             -231733.28      1874.4549      1445145.8    
    353000   694.19552     -237500.33      0             -231757.58      1874.52        1445189.6    
    353500   694.82296     -237520.63      0             -231772.7       1747.0048      1445233.3    
    354000   697.84557     -237542.31      0             -231769.37      1681.7088      1445276.8    
    354500   697.99073     -237519.5       0             -231745.35      1876.3808      1445320.1    
    355000   700.88093     -237517.21      0             -231719.16      1680.6871      1445363.3    
    355500   698.45818     -237486.33      0             -231708.32      1970.5402      1445406.3    
    356000   698.58325     -237480.42      0             -231701.37      2016.6737      1445449.2    
    356500   698.06739     -237469.72      0             -231694.94      1862.6269      1445491.9    
    357000   699.46861     -237475.71      0             -231689.34      1893.7748      1445534.6    
    357500   701.4281      -237487.64      0             -231685.07      1929.3359      1445577.1    
    358000   699.77152     -237471.49      0             -231682.62      1964.9218      1445619.5    
    358500   698.66274     -237463.55      0             -231683.84      1893.0559      1445661.8    
    359000   701.64303     -237495.13      0             -231690.77      1757.6815      1445704      
    359500   699.81424     -237494.07      0             -231704.84      1728.4396      1445746.1    
    360000   697.98977     -237495.64      0             -231721.51      1848.0373      1445788.1    
    360500   698.5157      -237511.23      0             -231732.75      1664.5952      1445829.9    
    361000   699.11824     -237518.03      0             -231734.56      1531.3122      1445871.5    
    361500   695.57376     -237477.04      0             -231722.89      1723.5889      1445913      
    362000   699.49293     -237481.09      0             -231694.52      1580.6717      1445954.4    
    362500   699.90129     -237462.51      0             -231672.56      1903.9904      1445995.5    
    363000   701.44753     -237468.74      0             -231666         1791.8359      1446036.6    
    363500   699.82516     -237456.31      0             -231666.99      1826.3899      1446077.6    
    364000   701.88536     -237478.94      0             -231672.57      1675.461       1446118.5    
    364500   700.21584     -237475.13      0             -231682.58      1734.8631      1446159.2    
    365000   697.21189     -237462.96      0             -231695.26      1728.0586      1446199.8    
    365500   698.20337     -237484.5       0             -231708.59      1564.7592      1446240.3    
    366000   695.86474     -237477.55      0             -231720.99      1575.4428      1446280.6    
    366500   698.25902     -237508.46      0             -231732.1       1517.3076      1446320.8    
    367000   695.35311     -237491.99      0             -231739.67      1602.4753      1446360.8    
    367500   694.96602     -237483.35      0             -231734.23      1555.5157      1446400.7    
    368000   695.18336     -237461.01      0             -231710.09      1742.8226      1446440.4    
    368500   700.57801     -237480.03      0             -231684.48      1536.2         1446480      
    369000   699.79827     -237458.49      0             -231669.4       1632.3541      1446519.4    
    369500   699.25512     -237445.73      0             -231661.13      1789.0133      1446558.8    
    370000   700.78654     -237454.85      0             -231657.58      1572.1675      1446598      
    370500   699.7347      -237448.27      0             -231659.7       1786.0644      1446637.2    
    371000   700.35614     -237462.07      0             -231668.36      1563.5802      1446676.2    
    371500   697.89113     -237457.78      0             -231684.47      1648.3804      1446715.1    
    372000   697.88146     -237477.09      0             -231703.85      1453.8763      1446753.9    
    372500   695.26885     -237469.11      0             -231717.49      1553.9769      1446792.6    
    373000   695.89095     -237477.07      0             -231720.3       1532.89        1446831      
    373500   696.43298     -237468.91      0             -231707.65      1392.8352      1446869.4    
    374000   700.55975     -237467.46      0             -231672.07      1429.9129      1446907.5    
    374500   703.75156     -237472.56      0             -231650.76      1560.0156      1446945.5    
    375000   702.13245     -237455.07      0             -231646.67      1599.8889      1446983.5    
    375500   702.31445     -237459.92      0             -231650.01      1663.8517      1447021.3    
    376000   702.01929     -237465.96      0             -231658.49      1450.3747      1447059      
    376500   702.67867     -237484.06      0             -231671.13      1396.7739      1447096.6    
    377000   700.89744     -237482.39      0             -231684.2       1310.8704      1447134.1    
    377500   699.56955     -237482.04      0             -231694.83      1299.4112      1447171.4    
    378000   696.50264     -237460.92      0             -231699.09      1560.8814      1447208.6    
    378500   696.2417      -237454         0             -231694.32      1519.4714      1447245.6    
    379000   700.77459     -237469.06      0             -231671.89      1348.0623      1447282.5    
    379500   701.38769     -237444.43      0             -231642.19      1577.2658      1447319.3    
    380000   701.53241     -237433.02      0             -231629.58      1518.2997      1447356      
    380500   700.17888     -237421.89      0             -231629.64      1592.8902      1447392.5    
    381000   698.48451     -237416.55      0             -231638.33      1637.909       1447429      
    381500   701.49314     -237456.16      0             -231653.04      1303.7287      1447465.3    
[...]
   1908000   701.0625      -237329.29      0             -231529.74     -95.651596      1454185.5    
   1908500   699.94404     -237318.39      0             -231528.09     -0.82395137     1454185      
   1909000   699.45253     -237313.5       0             -231527.26      141.06093      1454184.5    
   1909500   698.50661     -237306.82      0             -231528.41      138.03858      1454184      
   1910000   697.08882     -237299.66      0             -231532.98      28.904356      1454183.5    
   1910500   701.39306     -237344.24      0             -231541.95     -107.42414      1454183      
   1911000   697.88426     -237325.44      0             -231552.18      39.203509      1454182.5    
   1911500   700.53202     -237355.43      0             -231560.26     -147.97363      1454182      
   1912000   696.46058     -237324.73      0             -231563.25     -20.908674      1454181.5    
   1912500   695.53898     -237312.08      0             -231558.22      39.11695       1454181      
   1913000   699.35045     -237327.65      0             -231542.26     -163.31285      1454180.5    
   1913500   699.36733     -237305.15      0             -231519.62      166.20467      1454180      
   1914000   701.34258     -237306.13      0             -231504.26      95.166328      1454179.5    
   1914500   703.33617     -237318.61      0             -231500.24      93.874749      1454179      
   1915000   700.47654     -237299.8       0             -231505.09      219.50796      1454178.5    
   1915500   701.87688     -237322.62      0             -231516.33     -153.50399      1454178.1    
   1916000   698.98004     -237312.82      0             -231530.49      116.05796      1454177.7    
   1916500   700.45806     -237335.25      0             -231540.69     -124.3332       1454177.2    
   1917000   700.37278     -237337.87      0             -231544.02     -74.828985      1454176.8    
   1917500   700.76414     -237340.44      0             -231543.36     -172.93875      1454176.3    
   1918000   699.88762     -237331.09      0             -231541.26     -92.321854      1454175.8    
   1918500   701.51162     -237340.74      0             -231537.47     -112.56274      1454175.3    
   1919000   699.39666     -237318.21      0             -231532.44     -0.9546662      1454174.8    
   1919500   700.52133     -237321.39      0             -231526.31      85.847402      1454174.3    
   1920000   702.01808     -237325.21      0             -231517.75     -66.877832      1454173.8    
   1920500   702.57051     -237319.81      0             -231507.78      149.62244      1454173.4    
   1921000   702.48804     -237309.28      0             -231497.94      126.6076       1454172.9    
   1921500   701.39236     -237295.39      0             -231493.11      38.468238      1454172.5    
   1922000   702.21701     -237308.06      0             -231498.96      137.46793      1454172.1    
   1922500   700.03829     -237309.21      0             -231518.13      73.208023      1454171.7    
   1923000   700.51894     -237336.33      0             -231541.27     -281.75141      1454171.3    
   1923500   696.68987     -237318.61      0             -231555.23      14.079699      1454171      
   1924000   696.61397     -237321.83      0             -231559.08      60.450531      1454170.6    
   1924500   696.64902     -237318.37      0             -231555.32      15.920327      1454170.2    
   1925000   700.04236     -237335.67      0             -231544.55     -104.83707      1454169.7    
   1925500   700.38646     -237322.43      0             -231528.46      20.14095       1454169.3    
   1926000   702.59373     -237322.94      0             -231510.71      93.501096      1454168.9    
   1926500   701.79975     -237302.16      0             -231496.51      109.91228      1454168.5    
   1927000   705.25692     -237324.71      0             -231490.46     -110.38856      1454168.2    
   1927500   701.14549     -237298.24      0             -231498         248.69338      1454167.8    
   1928000   699.06664     -237317.81      0             -231534.77     -0.58391293     1454167.6    
   1928500   699.24289     -237344.93      0             -231560.43     -127.79368      1454167.3    
   1929000   697.14039     -237336.64      0             -231569.53      30.604588      1454167      
   1929500   698.65879     -237348.04      0             -231568.37     -38.610712      1454166.7    
   1930000   700.94768     -237356.1       0             -231557.5      -230.185        1454166.4    
   1930500   701.24478     -237340.6       0             -231539.54     -128.5542       1454166.1    
   1931000   700.42076     -237316.28      0             -231522.04     -12.390017      1454165.8    
   1931500   701.32181     -237312.36      0             -231510.66      263.08287      1454165.5    
   1932000   701.52599     -237310.25      0             -231506.86      158.60709      1454165.2    
   1932500   704.06201     -237334.87      0             -231510.5       96.988363      1454165      
   1933000   700.97618     -237322.28      0             -231523.44      110.60916      1454164.8    
   1933500   696.48771     -237310.42      0             -231548.72      133.46906      1454164.7    
   1934000   697.19256     -237339         0             -231571.46     -27.173897      1454164.5    
   1934500   695.70949     -237332.02      0             -231576.75     -158.52229      1454164.3    
   1935000   700.01471     -237362         0             -231571.11     -230.44837      1454164      
   1935500   697.80042     -237333.44      0             -231560.88     -127.72684      1454163.7    
   1936000   696.61344     -237311.31      0             -231548.56      233.11813      1454163.4    
   1936500   701.79465     -237342.65      0             -231537.04     -129.05591      1454163.1    
   1937000   700.22083     -237320.76      0             -231528.17      3.7139776      1454162.8    
   1937500   701.13155     -237321.92      0             -231521.79      61.282129      1454162.5    
   1938000   699.36606     -237304.57      0             -231519.05      187.34372      1454162.2    
   1938500   698.32452     -237297.62      0             -231520.72      87.975377      1454161.9    
   1939000   700.45977     -237325.19      0             -231530.62      84.925888      1454161.7    
   1939500   698.44354     -237334.71      0             -231556.82     -168.51828      1454161.5    
   1940000   697.68628     -237350.92      0             -231579.29     -121.0349       1454161.2    
   1940500   695.7019      -237339.76      0             -231584.55     -126.10044      1454160.9    
   1941000   694.5173      -237321.39      0             -231575.98     -106.82391      1454160.6    
   1941500   698.51837     -237334.79      0             -231556.28     -76.240517      1454160.2    
   1942000   702.19858     -237345.51      0             -231536.56     -184.56209      1454159.8    
   1942500   701.4124      -237328.43      0             -231525.99      44.037914      1454159.5    
   1943000   698.94896     -237303.98      0             -231521.91      69.04496       1454159.1    
   1943500   702.45897     -237332.83      0             -231521.72     -182.49316      1454158.7    
   1944000   699.78931     -237313.66      0             -231524.64      12.722017      1454158.3    
   1944500   697.46965     -237300.5       0             -231530.67      68.643721      1454157.9    
   1945000   698.76652     -237321.83      0             -231541.27     -116.50646      1454157.6    
   1945500   698.43011     -237339.06      0             -231561.29     -195.24275      1454157.1    
   1946000   695.87913     -237341.06      0             -231584.39     -101.32018      1454156.7    
   1946500   696.17784     -237354.42      0             -231595.27     -142.90009      1454156.2    
   1947000   697.17049     -237356.66      0             -231589.3      -275.9606       1454155.7    
   1947500   699.15248     -237349.48      0             -231565.73     -99.380714      1454155.2    
   1948000   698.02048     -237316.95      0             -231542.56      81.093041      1454154.6    
   1948500   697.3362      -237302.37      0             -231533.64     -42.504771      1454154      
   1949000   699.9096      -237319.46      0             -231529.45     -83.161058      1454153.4    
   1949500   699.89006     -237316.91      0             -231527.06      14.161867      1454152.9    
   1950000   703.14948     -237342.82      0             -231526        -69.784211      1454152.3    
   1950500   700.85947     -237324.99      0             -231527.12      44.391035      1454151.7    
   1951000   701.5498      -237333.93      0             -231530.35     -20.75526       1454151.2    
   1951500   696.84086     -237301.38      0             -231536.75      54.165561      1454150.6    
   1952000   698.53325     -237325.59      0             -231546.96      58.299904      1454150.1    
   1952500   699.45351     -237345.6       0             -231559.36     -211.87244      1454149.5    
   1953000   700.65855     -237366.37      0             -231570.16     -329.12952      1454148.9    
   1953500   697.73639     -237345.92      0             -231573.89     -25.847495      1454148.3    
   1954000   697.50628     -237335.69      0             -231565.55     -143.32087      1454147.7    
   1954500   696.92915     -237307.39      0             -231542.03      77.27004       1454147.1    
   1955000   699.4403      -237304.24      0             -231518.1       144.0181       1454146.5    
   1955500   700.50278     -237303.09      0             -231508.17      87.280306      1454145.9    
   1956000   699.62098     -237295.5       0             -231507.87      122.60904      1454145.3    
   1956500   701.56515     -237317.67      0             -231513.95      3.0317218      1454144.7    
   1957000   698.45798     -237303.21      0             -231525.2       195.51266      1454144.1    
   1957500   700.4805      -237334.47      0             -231539.73     -28.757761      1454143.6    
   1958000   699.6638      -237341.68      0             -231553.7      -80.971058      1454143      
   1958500   697.29192     -237332.07      0             -231563.71     -107.63608      1454142.4    
   1959000   695.43813     -237321.46      0             -231568.43      129.77164      1454141.8    
   1959500   699.30467     -237348.95      0             -231563.93     -71.408077      1454141.2    
   1960000   699.37546     -237328.16      0             -231542.56      48.508435      1454140.6    
   1960500   701.42411     -237320.87      0             -231518.32      68.986659      1454140      
   1961000   702.74899     -237317.09      0             -231503.59      36.259338      1454139.3    
   1961500   701.06055     -237298.43      0             -231498.9       89.612916      1454138.8    
   1962000   701.11251     -237303.68      0             -231503.71      131.1428       1454138.2    
   1962500   700.64385     -237314.12      0             -231518.03      51.027396      1454137.7    
   1963000   700.13297     -237329.14      0             -231537.27      44.964516      1454137.2    
   1963500   699.83694     -237342.19      0             -231552.77     -161.53021      1454136.6    
   1964000   696.35059     -237320.4       0             -231559.82      76.531416      1454136.1    
   1964500   698.70835     -237339.08      0             -231559.01     -115.60278      1454135.6    
   1965000   698.99185     -237333.61      0             -231551.18     -64.611984      1454135      
   1965500   701.15079     -237335.33      0             -231535.05     -89.44252       1454134.4    
   1966000   699.20987     -237296.05      0             -231511.82      128.15032      1454133.8    
   1966500   703.2909      -237308.2       0             -231490.21     -0.73695847     1454133.3    
   1967000   701.91308     -237289.53      0             -231482.94      246.42799      1454132.8    
   1967500   703.24567     -237305.66      0             -231488.05      48.129886      1454132.3    
   1968000   705.16221     -237330.12      0             -231496.65      59.290241      1454131.8    
   1968500   700.63983     -237304.92      0             -231508.87      168.25863      1454131.4    
   1969000   699.621       -237311.78      0             -231524.15      125.25032      1454131      
   1969500   699.24218     -237323.66      0             -231539.16     -72.301938      1454130.7    
   1970000   698.54711     -237329.96      0             -231551.22     -127.56215      1454130.3    
   1970500   698.00218     -237332.1       0             -231557.87     -75.643146      1454129.9    
   1971000   700.6122      -237354.13      0             -231558.3      -177.17172      1454129.5    
   1971500   698.62041     -237330.6       0             -231551.25     -160.44439      1454129.1    
   1972000   700.96941     -237330.28      0             -231531.49     -19.416291      1454128.7    
   1972500   702.65706     -237318.59      0             -231505.84      28.474897      1454128.2    
   1973000   701.96149     -237299.94      0             -231492.95      143.17943      1454127.8    
   1973500   701.95257     -237300.85      0             -231493.93      78.329158      1454127.4    
   1974000   702.81053     -237317.33      0             -231503.31     -15.039133      1454127      
   1974500   704.09581     -237340.48      0             -231515.84     -107.51206      1454126.7    
   1975000   700.94848     -237325.17      0             -231526.56      75.574362      1454126.3    
   1975500   701.08182     -237332.91      0             -231533.19     -134.65029      1454126      
   1976000   701.01565     -237336.3       0             -231537.14     -165.02509      1454125.7    
   1976500   697.54017     -237309.8       0             -231539.38      85.466099      1454125.4    
   1977000   699.40774     -237325.43      0             -231539.57      25.854606      1454125.1    
   1977500   698.76564     -237319.87      0             -231539.32      80.12474       1454124.8    
   1978000   700.86708     -237334.29      0             -231536.35      19.58906       1454124.5    
   1978500   700.51282     -237322.21      0             -231527.2       55.724563      1454124.2    
   1979000   703.38792     -237329.69      0             -231510.9       20.129978      1454123.9    
   1979500   703.38491     -237314.99      0             -231496.22      68.497985      1454123.7    
   1980000   701.72473     -237295.75      0             -231490.71      144.77296      1454123.5    
   1980500   702.25035     -237306.42      0             -231497.04      186.2866       1454123.4    
   1981000   699.18791     -237300.61      0             -231516.56      113.92615      1454123.3    
   1981500   700.42713     -237333.71      0             -231539.41     -4.7206058      1454123.2    
   1982000   700.77042     -237349.58      0             -231552.45     -94.167553      1454123.2    
   1982500   698.97426     -237338.26      0             -231555.98     -38.013453      1454123.1    
   1983000   699.85491     -237342.96      0             -231553.39      71.818629      1454123      
   1983500   700.10708     -237337.65      0             -231546        -24.858665      1454123      
   1984000   699.63004     -237323.1       0             -231535.4       63.086416      1454122.9    
   1984500   701.71621     -237327.37      0             -231522.41      110.63611      1454122.8    
   1985000   699.61155     -237295.39      0             -231507.84      241.45426      1454122.7    
   1985500   701.15371     -237288.83      0             -231488.52      325.11027      1454122.7    
   1986000   704.96213     -237294.79      0             -231462.98      176.99199      1454122.7    
   1986500   706.62568     -237294.4       0             -231448.82      288.90505      1454122.8    
   1987000   705.68409     -237295.33      0             -231457.54      353.83517      1454123      
   1987500   703.83102     -237312.75      0             -231490.3       57.487101      1454123.2    
   1988000   700.43756     -237306.81      0             -231512.42      248.65495      1454123.5    
   1988500   702.9798      -237339.36      0             -231523.94     -2.2942096      1454123.8    
   1989000   699.59057     -237322.18      0             -231534.8       38.034653      1454124.1    
   1989500   700.68612     -237341.63      0             -231545.19      10.646945      1454124.4    
   1990000   701.20338     -237353.29      0             -231552.57     -34.446275      1454124.8    
   1990500   699.58004     -237342.45      0             -231555.16      61.984308      1454125.1    
   1991000   700.98199     -237351.06      0             -231552.18     -126.18758      1454125.3    
   1991500   699.21761     -237326.09      0             -231541.8      -27.93501       1454125.6    
   1992000   703.98847     -237347.19      0             -231523.44      27.787879      1454125.9    
   1992500   704.531       -237332.96      0             -231504.71     -47.21185       1454126.2    
   1993000   702.72843     -237307.84      0             -231494.51      182.73238      1454126.5    
   1993500   703.97722     -237318.7       0             -231495.03      57.792867      1454126.9    
   1994000   704.30642     -237335.52      0             -231509.13      159.02885      1454127.3    
   1994500   699.00594     -237322.4       0             -231539.85      34.590435      1454127.7    
   1995000   698.41147     -237338.31      0             -231560.69     -179.3695       1454128.1    
   1995500   699.34469     -237348.3       0             -231562.96     -138.97771      1454128.5    
   1996000   696.28228     -237317.6       0             -231557.59     -6.1603108      1454128.9    
   1996500   699.54689     -237334.24      0             -231547.22      18.722483      1454129.3    
   1997000   701.71673     -237338.41      0             -231533.45     -129.37955      1454129.6    
   1997500   701.56124     -237324.08      0             -231520.4       80.08679       1454130      
   1998000   700.46616     -237305.86      0             -231511.24      270.03073      1454130.4    
   1998500   701.40822     -237309.92      0             -231507.51      224.37083      1454130.8    
   1999000   701.91354     -237317.75      0             -231511.16     -15.257703      1454131.2    
   1999500   698.50882     -237308.66      0             -231530.23      165.55603      1454131.6    
   2000000   696.93124     -237326.06      0             -231560.68     -28.720367      1454132.1    
Loop time of 42230.8 on 10 procs for 2000000 steps with 64000 atoms

Performance: 4.092 ns/day, 5.865 hours/ns, 47.359 timesteps/s
99.1% CPU use with 10 MPI tasks x no OpenMP threads

MPI task timing breakdown:
Section |  min time  |  avg time  |  max time  |%varavg| %total
---------------------------------------------------------------
Pair    | 38818      | 38972      | 39287      |  67.7 | 92.28
Neigh   | 1112.4     | 1119.3     | 1131.1     |  17.6 |  2.65
Comm    | 1030.9     | 1361.6     | 1511.1     | 371.5 |  3.22
Output  | 14.781     | 14.79      | 14.858     |   0.6 |  0.04
Modify  | 635.4      | 641.71     | 655.96     |  29.7 |  1.52
Other   |            | 121.5      |            |       |  0.29

Nlocal:           6400 ave        6499 max        6345 min
Histogram: 1 2 3 0 2 0 0 1 0 1
Nghost:          12794 ave       12841 max       12748 min
Histogram: 2 1 0 0 2 1 1 1 0 2
Neighs:         794477 ave      807410 max      787770 min
Histogram: 2 2 2 1 1 0 0 1 0 1

Total # of neighbors = 7944766
Ave neighs/atom = 124.13697
Neighbor list builds = 44987
Dangerous builds = 0
Total wall time: 11:43:51
