LAMMPS (2 Aug 2023)
Lattice spacing in x,y,z = 5.5392 5.5392 5.5392
Created orthogonal box = (0 0 0) to (110.784 110.784 110.784)
  1 by 2 by 2 MPI processor grid
Created 64000 atoms
  using lattice units in orthogonal box = (0 0 0) to (110.784 110.784 110.784)
  create_atoms CPU = 0.003 seconds
32000 atoms in group Ba
32000 atoms in group O
WARNING: 23463 of 50000 force values in table Vash_11 are inconsistent with -dE/dr.
WARNING:  Should only be flagged at inflection points (../pair_table.cpp:466)
WARNING: 43814 of 50000 distance values in table 1e-06 with relative error
WARNING:  over Vash_11 to re-computed values (../pair_table.cpp:474)
WARNING: 23576 of 50000 force values in table Vash_12 are inconsistent with -dE/dr.
WARNING:  Should only be flagged at inflection points (../pair_table.cpp:466)
WARNING: 43814 of 50000 distance values in table 1e-06 with relative error
WARNING:  over Vash_12 to re-computed values (../pair_table.cpp:474)
WARNING: 23794 of 50000 force values in table Vash_22 are inconsistent with -dE/dr.
WARNING:  Should only be flagged at inflection points (../pair_table.cpp:466)
WARNING: 43814 of 50000 distance values in table 1e-06 with relative error
WARNING:  over Vash_22 to re-computed values (../pair_table.cpp:474)
Generated 0 of 1 mixed pair_coeff terms from geometric mixing rule
Neighbor list info ...
  update: every = 8 steps, delay = 0 steps, check = yes
  max neighbors/atom: 2000, page size: 100000
  master list distance cutoff = 11
  ghost atom cutoff = 11
  binsize = 5.5, bins = 21 21 21
  1 neighbor lists, perpetual/occasional/extra = 1 0 0
  (1) pair table, perpetual
      attributes: half, newton on
      pair build: half/bin/atomonly/newton
      stencil: half/bin/3d
      bin: standard
Setting up Verlet run ...
  Unit style    : metal
  Current step  : 0
  Time step     : 0.001
Per MPI rank memory allocation (min/avg/max) = 16.41 | 16.41 | 16.41 Mbytes
   Step          Temp          E_pair         E_mol          TotEng         Press          Volume    
         0   2100          -243821.04      0             -226448.75      13334.72       1359662.5    
       500   1095.5463     -235171         0             -226108.08      48611.225      1359664.3    
      1000   1150.647      -235116.25      0             -225597.5       49300.255      1359669.7    
      1500   1183.2772     -234799.83      0             -225011.15      51072.93       1359678.8    
      2000   1226.9415     -234518.58      0             -224368.68      52553.266      1359691.7    
      2500   1269.2979     -234181.05      0             -223680.76      54308.947      1359708.5    
      3000   1317.3394     -233850.94      0             -222953.22      56427.788      1359729.5    
      3500   1366.7304     -233498.16      0             -222191.86      58217.957      1359754.6    
      4000   1415.3713     -233109.85      0             -221401.16      60175.727      1359784.1    
      4500   1468.0793     -232730.26      0             -220585.55      62044.611      1359818      
      5000   1533.3234     -232434.05      0             -219749.6       63665.004      1359856.6    
      5500   1582.8242     -231992.73      0             -218898.79      66043.954      1359900      
      6000   1636.0776     -231573.18      0             -218038.7       68341.087      1359948.3    
      6500   1694.0121     -231189         0             -217175.25      70302.477      1360001.7    
      7000   1748.9536     -230783.74      0             -216315.49      72182.115      1360060.3    
      7500   1808.0626     -230424.64      0             -215467.41      74165.51       1360124.3    
      8000   1868.1875     -230094.5       0             -214639.88      75949.717      1360193.9    
      8500   1915.2971     -229685.68      0             -213841.35      78013.585      1360269.1    
      9000   1964.2879     -229334.48      0             -213084.87      79756.849      1360350.2    
      9500   2014.9644     -229050.55      0             -212381.72      81092.289      1360437.2    
     10000   2047.5374     -228685.64      0             -211747.34      82985.93       1360530.2    
     10500   2083.9029     -228438.04      0             -211198.91      84222.332      1360629.4    
     11000   2118.7135     -228286.88      0             -210759.78      84856.945      1360734.7    
     11500   2145.5283     -228203.77      0             -210454.85      85456.077      1360846.4    
     12000   2150.9022     -228109.09      0             -210315.71      85727.003      1360964.4    
     12500   2132.4589     -228005.12      0             -210364.32      86031.591      1361088.6    
     13000   2130.4664     -228204.51      0             -210580.19      84886.856      1361219.1    
     13500   2105.7815     -228305.33      0             -210885.21      84441.131      1361355.9    
     14000   2081.1576     -228401.28      0             -211184.86      84141.794      1361498.7    
     14500   2079.4909     -228613.99      0             -211411.36      82848.944      1361647.5    
     15000   2067.6855     -228628.74      0             -211523.77      82719.384      1361802.2    
     15500   2071.552      -228638.5       0             -211501.55      82726.769      1361962.8    
     16000   2072.5099     -228496.62      0             -211351.74      82980.153      1362129.1    
     16500   2087.8039     -228392.53      0             -211121.14      83728.743      1362301.1    
     17000   2109.033      -228325.45      0             -210878.43      83976.429      1362478.8    
     17500   2121.1487     -228232.61      0             -210685.37      84349.201      1362662.2    
     18000   2127.8918     -228188.4       0             -210585.38      84414.86       1362851.1    
     18500   2125.4767     -228183.34      0             -210600.29      84403.393      1363045.5    
     19000   2117.1332     -228240.39      0             -210726.36      84034.798      1363245.3    
     19500   2108.4211     -228366.55      0             -210924.59      83464.044      1363450.3    
     20000   2095.6283     -228473.42      0             -211137.29      82792.894      1363660.3    
     20500   2085.4762     -228560.81      0             -211308.67      82390.75       1363875.2    
     21000   2077.4296     -228583.74      0             -211398.17      82079.399      1364094.9    
     21500   2081.4343     -228606.31      0             -211387.6       82034.184      1364319      
     22000   2080.1866     -228490.39      0             -211282         82184.32       1364547.5    
     22500   2097.8022     -228465.52      0             -211111.41      82190.86       1364780.3    
     23000   2111.4705     -228393.77      0             -210926.59      82541.794      1365017      
     23500   2119.7041     -228310.25      0             -210774.95      82679.561      1365257.7    
     24000   2120.3597     -228235.02      0             -210694.3       83101.157      1365502.1    
     24500   2126.5566     -228293.98      0             -210701.99      82888.814      1365749.9    
     25000   2124.2747     -228370.92      0             -210797.81      82555.912      1366001.1    
     25500   2103.6065     -228354.83      0             -210952.7       82177.296      1366255.4    
     26000   2095.4712     -228457.73      0             -211122.9       81656.813      1366512.4    
     26500   2089.6882     -228553.49      0             -211266.5       81324.025      1366772.1    
     27000   2078.2594     -228538.08      0             -211345.63      80813.793      1367034      
     27500   2087.2244     -228609.19      0             -211342.59      80626.648      1367297.9    
     28000   2086.4832     -228519.34      0             -211258.87      80966.116      1367563.6    
     28500   2087.9809     -228392.09      0             -211119.23      81268.315      1367831      
     29000   2106.4385     -228387.88      0             -210962.33      81441.227      1368099.7    
     29500   2108.6511     -228274.91      0             -210831.05      81736.254      1368369.5    
     30000   2121.8481     -228311.62      0             -210758.59      81509.449      1368640.3    
     30500   2113.4332     -228246.59      0             -210763.17      81615.139      1368911.9    
     31000   2120.8496     -228386.79      0             -210842.02      80847.657      1369183.9    
     31500   2109.6506     -228425.88      0             -210973.75      80715.398      1369456.2    
     32000   2090.076      -228410.93      0             -211120.73      80540.245      1369728.6    
     32500   2081.5896     -228464.47      0             -211244.48      79995.133      1370000.8    
     33000   2078.9947     -228514.15      0             -211315.63      79799.703      1370272.6    
     33500   2086.8901     -228580.43      0             -211316.59      79239.553      1370543.8    
     34000   2081.4658     -228466.97      0             -211248.01      80015.764      1370814.3    
     34500   2096.8856     -228475.25      0             -211128.73      79602.788      1371083.9    
     35000   2105.9936     -228414.38      0             -210992.51      79869.637      1371352.4    
     35500   2113.4831     -228360.25      0             -210876.42      79875.761      1371619.9    
     36000   2109.1605     -228257.02      0             -210808.95      80142.017      1371886.1    
     36500   2117.159      -228320.83      0             -210806.59      80253.288      1372151      
     37000   2114.5043     -228363.5       0             -210871.22      79939.66       1372414.5    
     37500   2102.5023     -228377.63      0             -210984.64      79499.957      1372676.4    
     38000   2089.8845     -228403.58      0             -211114.96      79427.155      1372936.8    
     38500   2088.3301     -228502.88      0             -211227.13      78527.25       1373195.6    
     39000   2085.2694     -228544.28      0             -211293.85      78175.242      1373452.6    
     39500   2075.7135     -228470.52      0             -211299.13      78671.991      1373707.9    
     40000   2084.2939     -228483.8       0             -211241.43      78222.693      1373961.4    
     40500   2086.351      -228397.14      0             -211137.76      78630.383      1374213.2    
     41000   2099.936      -228386.51      0             -211014.75      78497.689      1374463.2    
     41500   2110.4752     -228367.1       0             -210908.16      78683.177      1374711.6    
     42000   2116.3491     -228352.99      0             -210845.45      78837.064      1374958.3    
     42500   2122.4072     -228400.65      0             -210842.99      78304.029      1375203.4    
     43000   2110.7685     -228363.48      0             -210902.1       78426.723      1375447      
     43500   2104.8624     -228418.69      0             -211006.17      77953.258      1375689.1    
     44000   2089.9129     -228413.31      0             -211124.46      77696.508      1375929.7    
     44500   2088.7531     -228504.77      0             -211225.52      77217.977      1376168.9    
     45000   2093.2067     -228599.36      0             -211283.27      77078.503      1376406.7    
     45500   2078.5875     -228478.37      0             -211283.22      77239.155      1376643.3    
     46000   2092.2369     -228533.98      0             -211225.91      77013.656      1376878.5    
     46500   2097.4581     -228478.4       0             -211127.14      76961.221      1377112.7    
     47000   2105.4065     -228431.5       0             -211014.49      77525.341      1377345.8    
     47500   2103.8791     -228323.69      0             -210919.31      77709.212      1377578      
     48000   2114.328      -228356.74      0             -210865.92      77625.562      1377809.3    
     48500   2112.5414     -228345.02      0             -210868.98      77271.404      1378039.9    
     49000   2117.2015     -228441.61      0             -210927.02      77090.784      1378269.8    
     49500   2104.4434     -228434.69      0             -211025.64      76960.736      1378499.2    
     50000   2100.6708     -228513.86      0             -211136.02      76450.569      1378727.9    
     50500   2088.236      -228503.89      0             -211228.92      76029.198      1378956.3    
     51000   2084.4007     -228523.41      0             -211280.16      75741.705      1379184.2    
     51500   2084.5755     -228522.28      0             -211277.58      76197.96       1379411.7    
     52000   2090.2277     -228512.64      0             -211221.19      75913.099      1379638.9    
     52500   2093.8981     -228446.64      0             -211124.82      76105.703      1379866      
     53000   2102.9313     -228414.89      0             -211018.35      76414.101      1380092.9    
     53500   2111.2424     -228395.92      0             -210930.62      76104.578      1380319.8    
     54000   2111.3062     -228348.82      0             -210883         76570.876      1380546.7    
     54500   2106.0147     -228309.21      0             -210887.16      76645.052      1380773.7    
     55000   2112.4773     -228417.01      0             -210941.5       75824.314      1381000.8    
     55500   2117.2672     -228548.47      0             -211033.33      75514.543      1381228.1    
     56000   2094.3401     -228461.93      0             -211136.46      75232.475      1381455.6    
     56500   2099.0137     -228587.92      0             -211223.78      74928.595      1381683.3    
     57000   2088.3208     -228548.35      0             -211272.67      74854.059      1381911.2    
     57500   2085.8305     -228526         0             -211270.93      74908.514      1382139.3    
     58000   2093.8467     -228539.02      0             -211217.63      74704.285      1382367.8    
     58500   2099.6785     -228497.59      0             -211127.96      74899.741      1382596.5    
     59000   2101.3541     -228411.33      0             -211027.84      75189.846      1382825.6    
     59500   2113.3383     -228427.08      0             -210944.44      74965.074      1383055      
     60000   2124.8571     -228476.62      0             -210898.7       74774.856      1383284.8    
     60500   2111.1814     -228367.5       0             -210902.71      74999.746      1383515.1    
     61000   2099.3071     -228320.82      0             -210954.26      74965.761      1383745.7    
     61500   2098.4368     -228400.74      0             -211041.38      74689.895      1383976.8    
     62000   2102.6947     -228534.73      0             -211140.15      74123.415      1384208.2    
     62500   2098.295      -228582.7       0             -211224.51      73759.188      1384440      
     63000   2088.9188     -228552.87      0             -211272.24      73937.93       1384672.1    
     63500   2094.8591     -228601.9       0             -211272.14      73588.725      1384904.5    
     64000   2090.3889     -228515.16      0             -211222.38      73707.474      1385137.2    
     64500   2092.931      -228450.5       0             -211136.69      73844.561      1385370.3    
     65000   2105.1116     -228452.37      0             -211037.79      74040.74       1385603.6    
     65500   2115.0632     -228450.39      0             -210953.48      73811.029      1385837.2    
     66000   2103.5311     -228306.5       0             -210905         74523.833      1386071      
     66500   2109.3319     -228355.29      0             -210905.8       74155.847      1386305.2    
     67000   2115.5036     -228455.28      0             -210954.73      73636.737      1386539.5    
     67500   2094.9096     -228368.52      0             -211038.34      73680.534      1386774.1    
     68000   2093.4169     -228452.49      0             -211134.66      73362.861      1387008.8    
     68500   2099.5733     -228584.94      0             -211216.18      72689.683      1387243.6    
     69000   2091.9738     -228569.71      0             -211263.81      72466.648      1387478.4    
     69500   2081.6495     -228484.59      0             -211264.1       72892.895      1387713.2    
     70000   2094.7446     -228545.13      0             -211216.32      72541.519      1387948      
     70500   2097.149      -228483.83      0             -211135.12      72837.096      1388182.8    
     71000   2096.6426     -228387.45      0             -211042.93      73094.758      1388417.5    
     71500   2104.4685     -228373.18      0             -210963.92      73123.494      1388652.1    
     72000   2117.4897     -228435.04      0             -210918.07      72845.986      1388886.6    
     72500   2106.9906     -228349.48      0             -210919.36      73262.757      1389121      
     73000   2107.7979     -228403.45      0             -210966.65      72568.93       1389355.1    
     73500   2106.1374     -228469.01      0             -211045.94      72289.016      1389589.1    
     74000   2093.9631     -228456.91      0             -211134.56      72567.563      1389822.8    
     74500   2097.0637     -228557.38      0             -211209.38      71800.224      1390056.2    
     75000   2082.2966     -228476.05      0             -211250.21      71914.021      1390289.2    
     75500   2085.9237     -228502.06      0             -211246.21      71655.246      1390521.8    
     76000   2088.0247     -228472.93      0             -211199.71      71697.717      1390754      
     76500   2103.1707     -228521.56      0             -211123.04      71528.552      1390985.8    
     77000   2102.9991     -228434.94      0             -211037.84      71855.196      1391217      
     77500   2110.1484     -228423.52      0             -210967.28      71821.197      1391447.8    
     78000   2101.1955     -228310.02      0             -210927.84      72191.689      1391678.1    
     78500   2113.8898     -228417.21      0             -210930.01      71716.765      1391907.9    
     79000   2108.5427     -228418.36      0             -210975.4       71304.736      1392137.2    
     79500   2106.1776     -228473.83      0             -211050.43      71264.827      1392365.8    
     80000   2088.6909     -228412.06      0             -211133.32      71234.625      1392593.9    
     80500   2095.2182     -228534.44      0             -211201.71      70734.205      1392821.4    
     81000   2094.841      -228568.49      0             -211238.88      70692.707      1393048.1    
     81500   2098.4102     -228592.15      0             -211233.01      70286.401      1393274.2    
     82000   2103.2177     -228586.51      0             -211187.6       70049.082      1393499.6    
     82500   2095.6401     -228450.52      0             -211114.29      70840.362      1393724.2    
     83000   2103.204      -228432.86      0             -211034.06      70806.754      1393948.1    
     83500   2112.4071     -228442.41      0             -210967.48      71041.484      1394171.4    
     84000   2103.1743     -228330.44      0             -210931.89      71008.489      1394393.9    
     84500   2113.0944     -228416.91      0             -210936.3       70685.712      1394615.7    
     85000   2099.3851     -228346.43      0             -210979.23      70854.05       1394836.8    
     85500   2095.8785     -228386.95      0             -211048.75      70511.796      1395057.2    
     86000   2082.0918     -228350.76      0             -211126.62      70419.875      1395276.8    
     86500   2099.0586     -228557.03      0             -211192.52      69470.094      1395495.7    
     87000   2087.7527     -228499.59      0             -211228.61      69663.725      1395713.7    
     87500   2090.8893     -228521.25      0             -211224.33      69437.821      1395931      
     88000   2101.4613     -228565.7       0             -211181.32      69552.876      1396147.5    
     88500   2098.6747     -228472.17      0             -211110.84      69689.325      1396363.2    
     89000   2095.6685     -228367.91      0             -211031.45      70009.267      1396578.2    
     89500   2111.5143     -228431.42      0             -210963.88      69658.527      1396792.4    
     90000   2109.7369     -228380.06      0             -210927.22      69715.26       1397005.9    
     90500   2102.9723     -228328.78      0             -210931.9       70008.658      1397218.7    
     91000   2109.6985     -228428.76      0             -210976.24      69591.785      1397430.8    
     91500   2105.2204     -228463.3       0             -211047.82      69125.108      1397642.1    
     92000   2093.1729     -228443         0             -211127.18      69262.406      1397852.7    
     92500   2095.7749     -228529.66      0             -211192.32      68817.929      1398062.6    
     93000   2093.6773     -228546.07      0             -211226.08      68574.165      1398271.8    
     93500   2090.6107     -228514.21      0             -211219.6       68726.138      1398480.2    
     94000   2084.0848     -228415.63      0             -211175         68717.364      1398688      
     94500   2111.326      -228570.21      0             -211104.23      68497.304      1398895      
     95000   2099.9519     -228397.93      0             -211026.03      69271.64       1399101.4    
     95500   2104.5268     -228370.98      0             -210961.24      68882.175      1399307.1    
     96000   2102.438      -228319.36      0             -210926.9       68967.818      1399512.2    
     96500   2106.1961     -228355.69      0             -210932.14      68796.277      1399716.7    
     97000   2109.827      -228430.91      0             -210977.32      68634.107      1399920.6    
     97500   2094.7499     -228377.85      0             -211048.99      68901.672      1400123.9    
     98000   2096.3573     -228467.7       0             -211125.54      67841.121      1400326.7    
     98500   2097.3913     -228538.11      0             -211187.4       67617.826      1400528.8    
     99000   2092.7488     -228531.12      0             -211218.81      67773.035      1400730.3    
     99500   2097.6404     -228565.3       0             -211212.53      67597.738      1400931.2    
    100000   2096.4235     -228511.37      0             -211168.66      67607.437      1401131.6    
    100500   2101.9928     -228489.35      0             -211100.57      67676.758      1401331.4    
    101000   2103.7323     -228430.36      0             -211027.19      68063.261      1401530.7    
    101500   2113.8326     -228452.05      0             -210965.33      67899.875      1401729.5    
    102000   2111.227      -228396.46      0             -210931.29      67877.371      1401927.8    
    102500   2108.8468     -228380.7       0             -210935.22      67870.006      1402125.7    
    103000   2101.8075     -228360.59      0             -210973.35      67881.146      1402323.1    
    103500   2096.0332     -228376.68      0             -211037.2       67850.869      1402520      
    104000   2095.9095     -228446.99      0             -211108.54      67223.492      1402716.5    
    104500   2096.6049     -228512.68      0             -211168.48      66710.814      1402912.5    
    105000   2096.2513     -228542.44      0             -211201.16      67030.24       1403108.1    
    105500   2089.4235     -228481.89      0             -211197.09      67055.652      1403303.3    
    106000   2092.9955     -228472.04      0             -211157.69      66828.752      1403498      
    106500   2101.5592     -228478.07      0             -211092.88      66814.902      1403692.3    
    107000   2100.0629     -228393.37      0             -211020.56      67282.17       1403886.2    
    107500   2104.1149     -228365.78      0             -210959.45      67057.947      1404079.7    
    108000   2114.8323     -228420.63      0             -210925.64      67020.209      1404272.9    
    108500   2105.7845     -228348.55      0             -210928.41      66969.543      1404465.8    
    109000   2111.4055     -228433.07      0             -210966.42      66657.744      1404658.3    
    109500   2102.091      -228419.51      0             -211029.92      66635.779      1404850.5    
    110000   2094.3414     -228426.13      0             -211100.65      66429.972      1405042.4    
    110500   2090.5258     -228452.52      0             -211158.6       66242.978      1405233.9    
    111000   2089.4945     -228473.71      0             -211188.32      66199.102      1405425.1    
    111500   2095.3842     -228517.01      0             -211182.9       65907.834      1405616      
    112000   2097.195      -228491.48      0             -211142.39      66116.059      1405806.5    
    112500   2103.1827     -228477.36      0             -211078.74      66157.062      1405996.7    
    113000   2095.1405     -228341.17      0             -211009.08      66629.815      1406186.6    
    113500   2107.2019     -228384.03      0             -210952.16      66254.255      1406376.3    
    114000   2103.8218     -228326.33      0             -210922.42      66656.608      1406565.7    
    114500   2106.3003     -228352.35      0             -210927.93      66201.896      1406754.9    
    115000   2102.929      -228363.32      0             -210966.8       66336.172      1406943.8    
    115500   2094.4513     -228354.86      0             -211028.47      66011.638      1407132.4    
    116000   2092.1685     -228402.36      0             -211094.85      65727.966      1407320.9    
    116500   2101.5371     -228534.32      0             -211149.32      65205.323      1407509      
    117000   2090.8724     -228474.89      0             -211178.11      65400.931      1407696.9    
    117500   2088.1585     -228446.06      0             -211171.72      65329.89       1407884.6    
    118000   2087.641      -228401.86      0             -211131.8       65576.973      1408072      
    118500   2095.5522     -228404.84      0             -211069.34      65370.103      1408259.1    
    119000   2103.3353     -228402.14      0             -211002.25      65492.3        1408446      
    119500   2101.686      -228334.16      0             -210947.92      65653.369      1408632.7    
    120000   2106.1912     -228341.85      0             -210918.34      65678.199      1408819.2    
    120500   2110.6912     -228384.87      0             -210924.13      65213.938      1409005.6    
    121000   2103.239      -228362.61      0             -210963.52      65294.941      1409191.7    
    121500   2096.9216     -228371.23      0             -211024.4       64924.954      1409377.6    
    122000   2104.8831     -228503.8       0             -211091.11      64783.816      1409563.3    
    122500   2101.3046     -228527.31      0             -211144.23      64473.494      1409748.8    
    123000   2086.1266     -228426.26      0             -211168.73      64452.279      1409934.1    
    123500   2091.4552     -228459.44      0             -211157.84      64598.109      1410119.2    
    124000   2090.7484     -228410.53      0             -211114.77      64812.31       1410304.1    
    124500   2090.956      -228349.33      0             -211051.85      65025.027      1410488.7    
    125000   2101.1739     -228368.75      0             -210986.74      64840.82       1410673.2    
    125500   2104.8182     -228349.48      0             -210937.33      64711.224      1410857.5    
    126000   2108.2436     -228356.07      0             -210915.58      64884.459      1411041.7    
    126500   2108.5093     -228368.81      0             -210926.13      64542.283      1411225.6    
    127000   2103.5247     -228368.44      0             -210966.99      64461.886      1411409.5    
    127500   2102.1786     -228416.94      0             -211026.63      64142.417      1411593.1    
    128000   2105.6794     -228507.35      0             -211088.08      63888.284      1411776.6    
    128500   2094.0052     -228457.15      0             -211134.45      63957.217      1411959.9    
    129000   2098.5444     -228512.87      0             -211152.62      63699.072      1412143      
    129500   2101.9006     -228527.35      0             -211139.33      63398.458      1412325.9    
    130000   2097.3489     -228446.97      0             -211096.61      63645.866      1412508.6    
    130500   2094.473      -228363.79      0             -211037.22      64029.823      1412691.2    
    131000   2098.2843     -228335.26      0             -210977.16      64250.985      1412873.5    
    131500   2103.2198     -228330.67      0             -210931.74      64151.331      1413055.8    
    132000   2109.8989     -228367.14      0             -210912.96      63992.49       1413237.9    
    132500   2099.4706     -228293.1       0             -210925.19      64190.705      1413419.8    
    133000   2093.6504     -228284.68      0             -210964.92      63738.525      1413601.6    
    133500   2100.5478     -228398.5       0             -211021.68      63640.899      1413783.2    
    134000   2104.4714     -228489.63      0             -211080.35      63246.985      1413964.7    
    134500   2086.9109     -228388.64      0             -211124.63      63014.046      1414146      
    135000   2089.5104     -228426.56      0             -211141.05      63040.393      1414327.1    
    135500   2096.9513     -228472.56      0             -211125.49      63123.586      1414508.1    
    136000   2093.4674     -228400.61      0             -211082.35      62963.703      1414688.9    
    136500   2096.777      -228368.13      0             -211022.5       63280.283      1414869.5    
    137000   2105.2157     -228376.96      0             -210961.52      63050.538      1415049.9    
    137500   2108.9689     -228363.86      0             -210917.37      63352.699      1415230.2    
    138000   2106.9729     -228328.9       0             -210898.92      63505.709      1415410.4    
    138500   2112.7747     -228389.64      0             -210911.67      63096.209      1415590.4    
    139000   2107.7122     -228389.89      0             -210953.8       63059.755      1415770.3    
    139500   2101.8498     -228399.34      0             -211011.75      62623.523      1415950.1    
    140000   2095.1922     -228402.04      0             -211069.53      62605.422      1416129.6    
    140500   2096.6052     -228455.13      0             -211110.92      62520.32       1416309.1    
    141000   2102.4925     -228519.18      0             -211126.27      62045.754      1416488.3    
    141500   2091.6954     -228413.37      0             -211109.78      62173.73       1416667.4    
    142000   2093.0955     -228383.38      0             -211068.21      62494          1416846.3    
    142500   2101.1577     -228393.23      0             -211011.36      62431.604      1417025      
    143000   2101.6625     -228341.03      0             -210954.98      62540.334      1417203.6    
    143500   2110.4895     -228372.75      0             -210913.69      62227.685      1417382.1    
    144000   2106.5586     -228324.69      0             -210898.14      62213.769      1417560.4    
    144500   2102.3839     -228303.74      0             -210911.73      62461.351      1417738.6    
    145000   2102.5484     -228344.26      0             -210950.88      62302.141      1417916.7    
    145500   2100.2098     -228377.76      0             -211003.73      61975.34       1418094.6    
    146000   2093.9119     -228378.41      0             -211056.48      61879.617      1418272.3    
    146500   2090.7121     -228389.63      0             -211094.17      62223.375      1418450      
    147000   2086.8238     -228371.3       0             -211108.01      61961.036      1418627.4    
    147500   2095.0937     -228424.41      0             -211092.71      61726.103      1418804.7    
    148000   2096.7852     -228398.46      0             -211052.76      61772.974      1418981.8    
    148500   2100.8527     -228378.37      0             -210999.02      61501.858      1419158.8    
    149000   2098.5932     -228307.23      0             -210946.57      61724.128      1419335.6    
    149500   2114.0842     -228397.26      0             -210908.46      61428.046      1419512.4    
    150000   2105.7485     -228315.17      0             -210895.32      61719.995      1419688.9    
    150500   2096.7318     -228254.96      0             -210909.71      62096.935      1419865.4    
    151000   2102.1967     -228338.93      0             -210948.47      61725.801      1420041.7    
    151500   2098.8223     -228362.38      0             -210999.83      61067.66       1420217.9    
    152000   2089.195      -228331.63      0             -211048.73      61530.815      1420393.9    
    152500   2085.9471     -228336.45      0             -211080.41      61511.549      1420569.8    
    153000   2090.868      -228384.22      0             -211087.48      61260.506      1420745.6    
    153500   2091.5044     -228370.13      0             -211068.12      61040.629      1420921.1    
    154000   2103.6237     -228427.84      0             -211025.57      60632.313      1421096.6    
    154500   2100.5886     -228351.95      0             -210974.79      61089.137      1421271.9    
    155000   2104.254      -228336.05      0             -210928.56      61196.338      1421447      
    155500   2113.2554     -228378.78      0             -210896.84      60984.598      1421622      
    156000   2103.7857     -228291.96      0             -210888.35      61282.293      1421796.9    
    156500   2115.0985     -228403.24      0             -210906.05      60837.869      1421971.7    
    157000   2095.6081     -228280.26      0             -210944.3       60972.309      1422146.4    
    157500   2098.3351     -228351.4       0             -210992.88      60674.079      1422320.9    
    158000   2096.0431     -228378.65      0             -211039.09      60687.411      1422495.3    
    158500   2096.9655     -228416.89      0             -211069.71      60193.706      1422669.5    
    159000   2095.2793     -228409.09      0             -211075.85      60332.87       1422843.6    
    159500   2094.6922     -228385.04      0             -211056.66      60222.569      1423017.6    
    160000   2097.9235     -228371.04      0             -211015.92      60197.513      1423191.4    
    160500   2104.2662     -228372.31      0             -210964.73      60408.907      1423365      
    161000   2097.1698     -228265.35      0             -210916.47      60337.145      1423538.6    
    161500   2104.7091     -228292.58      0             -210881.33      60321.536      1423712      
    162000   2106.7259     -228298.21      0             -210870.28      60434.804      1423885.3    
    162500   2099.524      -228254.08      0             -210885.72      60611.027      1424058.5    
    163000   2099.7346     -228294.39      0             -210924.3       60062.625      1424231.5    
    163500   2096.5884     -228318.48      0             -210974.41      60203.257      1424404.5    
    164000   2091.1274     -228322.81      0             -211023.92      59889.854      1424577.3    
    164500   2091.4545     -228360.04      0             -211058.44      59622.801      1424750      
    165000   2095.2327     -228398.96      0             -211066.1       59407.618      1424922.5    
    165500   2098.2842     -228405.75      0             -211047.65      59839.346      1425094.9    
    166000   2081.5289     -228224.53      0             -211005.04      60017.2        1425267.2    
    166500   2108.5097     -228393.76      0             -210951.07      59611.235      1425439.3    
    167000   2111.6676     -228366.96      0             -210898.15      59581.256      1425611.3    
    167500   2099.5553     -228231.57      0             -210862.96      60199.826      1425783.2    
    168000   2106.6237     -228281.43      0             -210854.34      59996.325      1425955      
    168500   2104.8337     -228286.54      0             -210874.26      59750.862      1426126.6    
    169000   2099.2355     -228281.92      0             -210915.95      59649.727      1426298.2    
    169500   2104.4997     -228378.1       0             -210968.59      59150.383      1426469.7    
    170000   2102.24       -228408.33      0             -211017.51      59108.065      1426641      
    170500   2090.5276     -228340.81      0             -211046.88      59023.669      1426812.2    
    171000   2089.8916     -228338.51      0             -211049.84      59111.065      1426983.2    
    171500   2104.9575     -228437.51      0             -211024.21      58692.065      1427154.1    
    172000   2096.2392     -228318.71      0             -210977.53      59225.696      1427324.9    
    172500   2106.9007     -228352.13      0             -210922.75      59033.564      1427495.5    
    173000   2102.1123     -228262.16      0             -210872.39      59415.895      1427666.1    
    173500   2104.8203     -228252.59      0             -210840.42      59173.591      1427836.5    
    174000   2107.853      -228273.61      0             -210836.36      59476.763      1428006.8    
    174500   2103.7993     -228264.34      0             -210860.62      58818.456      1428177.1    
    175000   2099.586      -228275.69      0             -210906.83      58689.703      1428347.2    
    175500   2103.0178     -228358.61      0             -210961.35      58508.273      1428517.2    
    176000   2095.9444     -228349.3       0             -211010.56      58394.836      1428687.1    
    176500   2096.8116     -228384.26      0             -211038.34      58014.389      1428856.9    
    177000   2097.4925     -228389.08      0             -211037.53      58281.388      1429026.6    
    177500   2093.2361     -228325.23      0             -211008.89      58313.405      1429196.1    
    178000   2095.0705     -228292.85      0             -210961.34      58499.781      1429365.4    
    178500   2102.0101     -228297.29      0             -210908.37      58347.613      1429534.7    
    179000   2103.0034     -228260.44      0             -210863.3       58503.959      1429703.8    
    179500   2104.374      -228244.4       0             -210835.92      58323.05       1429872.9    
    180000   2104.5906     -228244.08      0             -210833.81      58235.489      1430041.8    
    180500   2109.0287     -228306.19      0             -210859.21      58197.762      1430210.7    
    181000   2095.6283     -228240.08      0             -210903.96      58479.995      1430379.5    
    181500   2091.6993     -228258.11      0             -210954.49      58138.495      1430548.1    
    182000   2093.6196     -228315.83      0             -210996.32      58011.76       1430716.6    
    182500   2101.9641     -228407.38      0             -211018.84      57478.983      1430885.1    
    183000   2090.6624     -228308.95      0             -211013.9       58049.255      1431053.3    
    183500   2101.4191     -228368.31      0             -210984.27      57658.907      1431221.5    
    184000   2098.7532     -228299.02      0             -210937.05      57706.672      1431389.5    
    184500   2103.414      -228285.78      0             -210885.24      57729.642      1431557.5    
    185000   2106.881      -228269.82      0             -210840.61      57733.471      1431725.3    
    185500   2108.8392     -228263.29      0             -210817.88      57667.66       1431893      
    186000   2106.0939     -228244.28      0             -210821.58      57563.133      1432060.6    
    186500   2112.9046     -228330.26      0             -210851.21      57501.191      1432228.1    
    187000   2095.8472     -228235.67      0             -210897.73      57855.036      1432395.6    
    187500   2097.9325     -228303.05      0             -210947.86      57602.731      1432562.9    
    188000   2102.5741     -228381.92      0             -210988.34      56870.313      1432730.1    
    188500   2097.6562     -228358.91      0             -211006.01      57277.746      1432897.2    
    189000   2090.2634     -228288.89      0             -210997.14      57159.65       1433064.2    
    189500   2093.211      -228279.4       0             -210963.27      56927.571      1433231      
    190000   2101.0368     -228294.2       0             -210913.33      57095.169      1433397.7    
    190500   2105.0024     -228274.38      0             -210860.71      57028.917      1433564.3    
    191000   2111.3859     -228283.04      0             -210816.56      57243.278      1433730.9    
    191500   2110.99       -228258.1       0             -210794.89      57185.31       1433897.3    
    192000   2113.773      -228287.97      0             -210801.74      57148.246      1434063.6    
    192500   2099.2668     -228200.83      0             -210834.61      57084.138      1434229.9    
    193000   2100.8593     -228265.87      0             -210886.47      56610.796      1434396      
    193500   2096.8998     -228288.31      0             -210941.67      56742.24       1434562.1    
    194000   2096.1443     -228323.36      0             -210982.96      56498.211      1434728      
    194500   2090.8174     -228296.39      0             -211000.06      56621.811      1434893.9    
    195000   2095.0749     -228318.5       0             -210986.95      56437.302      1435059.6    
    195500   2100.2251     -228321.63      0             -210947.48      56140.994      1435225.2    
    196000   2103.3285     -228292.48      0             -210892.66      56685.231      1435390.6    
    196500   2097.7454     -228189.52      0             -210835.88      56722.432      1435556      
    197000   2106.0646     -228214.71      0             -210792.25      56650.084      1435721.3    
    197500   2109.2532     -228224.04      0             -210775.2       56693.78       1435886.5    
    198000   2107.8442     -228225.06      0             -210787.88      56605.069      1436051.6    
    198500   2104.7225     -228238.96      0             -210827.6       56266.234      1436216.6    
    199000   2094.5532     -228210.08      0             -210882.85      56233.52       1436381.5    
    199500   2091.1933     -228236.32      0             -210936.88      56383.997      1436546.4    
    200000   2085.21       -228224.53      0             -210974.59      56226.525      1436711.1    
    200500   2087.6985     -228256.67      0             -210986.14      56139.238      1436875.7    
    201000   2100.8938     -228348.21      0             -210968.53      55626.995      1437040.2    
    201500   2095.094      -228256.55      0             -210924.84      55983.099      1437204.5    
    202000   2088.9625     -228149.39      0             -210868.41      56471.884      1437368.8    
    202500   2108.1086     -228252.81      0             -210813.44      55934.247      1437533      
    203000   2111.6242     -228243.63      0             -210775.18      56004.901      1437697      
    203500   2109.8723     -228217.41      0             -210763.45      56047.651      1437861      
    204000   2118.4052     -228303.11      0             -210778.56      55664.436      1438024.9    
    204500   2107.4518     -228250.61      0             -210816.68      55818.845      1438188.8    
    205000   2109.8619     -228321.92      0             -210868.04      55458.473      1438352.5    
    205500   2090.5758     -228212.69      0             -210918.36      55957.004      1438516.1    
    206000   2102.6362     -228346.16      0             -210952.06      55092.179      1438679.6    
    206500   2103.1684     -228361.42      0             -210962.91      55096.769      1438843.1    
    207000   2093.3377     -228263.65      0             -210946.47      55356.809      1439006.4    
    207500   2090.8273     -228202.72      0             -210906.31      55238.351      1439169.6    
    208000   2097.8385     -228208.79      0             -210854.38      55257.75       1439332.6    
    208500   2104.576      -228213.77      0             -210803.62      55627.159      1439495.6    
    209000   2099.0219     -228132.21      0             -210768.01      55890.08       1439658.6    
    209500   2112.0658     -228227.91      0             -210755.8       55362.991      1439821.4    
    210000   2101.7928     -228157.91      0             -210770.78      55583.599      1439984.2    
    210500   2108.1643     -228247.15      0             -210807.31      55277.846      1440146.9    
    211000   2096.4982     -228198.76      0             -210855.44      55202.001      1440309.5    
    211500   2096.5185     -228245.88      0             -210902.38      54814.441      1440472      
    212000   2095.0387     -228266.36      0             -210935.11      54798.382      1440634.4    
    212500   2089.4825     -228228.09      0             -210942.8       55011.296      1440796.7    
    213000   2092.2902     -228232.21      0             -210923.7       54928.919      1440958.8    
    213500   2094.6279     -228210.49      0             -210882.64      55000.719      1441120.9    
    214000   2099.051      -228196.03      0             -210831.59      55021.11       1441282.9    
    214500   2103.5505     -228185.16      0             -210783.5       54988.491      1441444.8    
    215000   2102.4313     -228143.21      0             -210750.81      54797.929      1441606.6    
    215500   2103.9677     -228146         0             -210740.89      54926.928      1441768.3    
    216000   2110.3396     -228215.88      0             -210758.05      54778.901      1441930      
    216500   2108.6403     -228240.1       0             -210796.33      54659.16       1442091.5    
    217000   2107.5024     -228278.82      0             -210844.47      54175.323      1442253      
    217500   2095.0038     -228219.25      0             -210888.29      54215.972      1442414.4    
    218000   2087.9703     -228188.79      0             -210916.02      54098.255      1442575.7    
    218500   2096.2209     -228259.05      0             -210918.02      54237.583      1442736.9    
    219000   2093.5826     -228215.1       0             -210895.89      54184.88       1442898      
    219500   2094.6002     -228183.22      0             -210855.6       54470.817      1443059      
    220000   2104.1559     -228213.73      0             -210807.06      54163.806      1443219.9    
    220500   2111.8666     -228234.66      0             -210764.2       54194.894      1443380.7    
    221000   2101.0358     -228117.35      0             -210736.49      54412.076      1443541.5    
    221500   2093.2057     -228048.11      0             -210732.02      54806.989      1443702.1    
    222000   2103.7712     -228156.18      0             -210752.69      54407.26       1443862.7    
    222500   2104.15       -228198.28      0             -210791.65      54128.509      1444023.3    
    223000   2099.3111     -228203.43      0             -210836.83      53691.534      1444183.7    
    223500   2097.3603     -228226.92      0             -210876.47      53715.666      1444344      
    224000   2092.528      -228210.05      0             -210899.57      53739.262      1444504.3    
    224500   2103.2585     -228297.13      0             -210897.88      53325.843      1444664.4    
    225000   2084.4599     -228116.47      0             -210872.73      53866.005      1444824.4    
    225500   2099.2682     -228195.24      0             -210829.01      53837.294      1444984.3    
    226000   2096.0419     -228119.88      0             -210780.33      53795.273      1445144.2    
    226500   2104.563      -228149.14      0             -210739.1       53604.197      1445303.9    
    227000   2103.2161     -228113.86      0             -210714.97      53672.061      1445463.6    
    227500   2110.6332     -228174.27      0             -210714.01      53580.65       1445623.2    
    228000   2109.3165     -228185.64      0             -210736.27      53489.164      1445782.7    
    228500   2098.4098     -228134.04      0             -210774.9       53879.843      1445942.1    
    229000   2094.9395     -228149.27      0             -210818.84      53711.783      1446101.4    
    229500   2096.5466     -228200.56      0             -210856.84      53414.422      1446260.7    
    230000   2086.1637     -228136.93      0             -210879.1       53460.061      1446419.9    
    230500   2098.7584     -228239.87      0             -210877.85      52933.616      1446578.9    
    231000   2100.1069     -228224.79      0             -210851.62      52733.327      1446737.9    
    231500   2094.298      -228134.03      0             -210808.91      53232.951      1446896.7    
    232000   2106.6859     -228188.86      0             -210761.26      52919.724      1447055.5    
    232500   2099.4137     -228090.46      0             -210723.02      53229.418      1447214.2    
    233000   2098.764      -228065.18      0             -210703.11      53561.422      1447372.8    
    233500   2107.4299     -228138.84      0             -210705.09      53025.222      1447531.3    
    234000   2100.2963     -228104.47      0             -210729.72      53198.939      1447689.8    
    234500   2097.8875     -228125.28      0             -210770.46      53120.91       1447848.1    
    235000   2099.1417     -228178.12      0             -210812.93      53067.697      1448006.4    
    235500   2094.5507     -228175.78      0             -210848.57      52786.496      1448164.7    
    236000   2095.8723     -228203.14      0             -210864.99      52593.031      1448322.8    
    236500   2093.5829     -228177.44      0             -210858.23      52811.996      1448480.8    
    237000   2096.1806     -228167.4       0             -210826.7       52671.673      1448638.7    
    237500   2092.9604     -228096.06      0             -210782.01      52871.424      1448796.5    
    238000   2094.9522     -228066.44      0             -210735.91      52871.908      1448954.3    
    238500   2098.3447     -228057.2       0             -210698.6       52927.142      1449111.9    
    239000   2102.4162     -228074.19      0             -210681.91      52820.152      1449269.5    
    239500   2105.9044     -228110.53      0             -210689.4       52749.594      1449427      
    240000   2098.2005     -228076.09      0             -210718.68      52214.027      1449584.5    
    240500   2090.2321     -228050.56      0             -210759.08      52679.433      1449741.8    
    241000   2097.3161     -228150.46      0             -210800.37      52110.63       1449899.1    
    241500   2094.6684     -228159.42      0             -210831.24      51976.268      1450056.3    
    242000   2092.1112     -228149.91      0             -210842.87      52011.36       1450213.4    
    242500   2092.0227     -228137.52      0             -210831.22      52176.932      1450370.4    
    243000   2094.5004     -228126.74      0             -210799.94      52064.47       1450527.3    
    243500   2104.3842     -228164.31      0             -210755.75      52192.43       1450684.1    
    244000   2096.633      -228057.8       0             -210713.36      52407.837      1450840.8    
    244500   2097.9996     -228040.06      0             -210684.32      52423.541      1450997.5    
    245000   2107.8907     -228109.08      0             -210671.51      52109.966      1451154.1    
    245500   2102.8071     -228076.15      0             -210680.64      52092.585      1451310.6    
    246000   2104.2963     -228116.67      0             -210708.84      52047.729      1451467.1    
    246500   2101.4625     -228132.94      0             -210748.55      51848.012      1451623.4    
    247000   2093.585      -228106.97      0             -210787.75      52115.813      1451779.7    
    247500   2096.5936     -228158.72      0             -210814.61      51738.004      1451935.9    
    248000   2094.5956     -228148.35      0             -210820.76      51431.593      1452092.1    
    248500   2090.1101     -228094.53      0             -210804.05      51787.37       1452248.1    
    249000   2093.5295     -228085.7       0             -210766.93      51675.168      1452404      
    249500   2096.8372     -228068.49      0             -210722.37      51732.384      1452559.8    
    250000   2106.8466     -228114.36      0             -210685.43      51333.771      1452715.6    
    250500   2109.3276     -228111.88      0             -210662.43      51482.834      1452871.3    
    251000   2100.7298     -228038.16      0             -210659.83      52015.083      1453026.9    
    251500   2100.2634     -228049.88      0             -210675.41      51683.272      1453182.5    
    252000   2103.9951     -228115.81      0             -210710.47      50993.612      1453338      
    252500   2090.3043     -228050.44      0             -210758.36      51785.769      1453493.4    
    253000   2101.8039     -228192.23      0             -210805.02      51074.724      1453648.7    
    253500   2087.7927     -228109.01      0             -210837.71      51404.515      1453804      
    254000   2091.7257     -228145.1       0             -210841.25      50822.506      1453959.1    
    254500   2092.2242     -228103.05      0             -210795.08      51241.949      1454114.1    
    255000   2103.5647     -228102.09      0             -210700.3       51215.47       1454269.1    
    255500   2097.5336     -228005.39      0             -210653.5       51351.044      1454424      
    256000   2102.2982     -228036.93      0             -210645.63      51217.486      1454578.8    
    256500   2100.2566     -228033.38      0             -210658.96      51504.167      1454733.6    
    257000   2105.2137     -228102.36      0             -210686.94      50907.687      1454888.2    
    257500   2100.7397     -228105.8       0             -210727.39      51034.623      1455042.9    
    258000   2103.5764     -228173.85      0             -210771.97      50407.451      1455197.4    
    258500   2087.905      -228081.09      0             -210808.86      50761.732      1455351.8    
    259000   2090.6978     -228123.17      0             -210827.83      50493.288      1455506.2    
    259500   2094.4456     -228136.94      0             -210810.6       50374.36       1455660.4    
    260000   2105.6217     -228149.77      0             -210730.97      50385.355      1455814.6    
    260500   2104.1137     -228065.9       0             -210659.58      50726.926      1455968.6    
    261000   2103.7278     -228033.26      0             -210630.13      50915.067      1456122.7    
    261500   2108.5113     -228070.74      0             -210628.04      50675.539      1456276.6    
    262000   2104.6201     -228056.68      0             -210646.17      50636.308      1456430.5    
    262500   2099.8456     -228052.76      0             -210681.74      50434.976      1456584.3    
    263000   2103.5321     -228132.38      0             -210730.87      50309.24       1456738.1    
    263500   2099.3752     -228147.27      0             -210780.15      50269.305      1456891.7    
    264000   2089.2977     -228098.11      0             -210814.36      50036.54       1457045.3    
    264500   2088.4713     -228097.12      0             -210820.2       50033.273      1457198.8    
    265000   2094.9497     -228099.06      0             -210768.55      50036.05       1457352.2    
    265500   2104.2848     -228078.55      0             -210670.81      50214.836      1457505.5    
    266000   2104.6273     -228035.39      0             -210624.82      50371.237      1457658.7    
    266500   2106.8038     -228043.11      0             -210614.53      50425.385      1457811.8    
    267000   2103.0432     -228021.32      0             -210623.85      50227.067      1457964.9    
    267500   2106.3247     -228074.87      0             -210650.26      50033.219      1458118      
    268000   2099.7389     -228059.96      0             -210689.83      49978.864      1458271      
    268500   2096.4447     -228079.66      0             -210736.78      49988.604      1458423.8    
    269000   2089.4847     -228062.06      0             -210776.76      49847.401      1458576.7    
    269500   2096.809      -228142.08      0             -210796.18      49607.898      1458729.4    
    270000   2091.8824     -228082.28      0             -210777.14      49750.962      1458882      
    270500   2088.4286     -227970.26      0             -210693.69      50185.709      1459034.6    
    271000   2095.3011     -227954.55      0             -210621.13      50177.491      1459187      
    271500   2108.8333     -228041.76      0             -210596.39      49696.58       1459339.4    
    272000   2097.7735     -227951.42      0             -210597.54      49903.573      1459491.8    
    272500   2103.0118     -228014.4       0             -210617.19      49815.411      1459644      
    273000   2105.6791     -228071.4       0             -210652.12      49573.302      1459796.3    
    273500   2101.3246     -228080.6       0             -210697.35      49281.177      1459948.4    
    274000   2093.1871     -228058.97      0             -210743.04      49559.04       1460100.5    
    274500   2088.8141     -228056.57      0             -210776.81      49316.09       1460252.5    
    275000   2087.1717     -228054.26      0             -210788.09      49311.37       1460404.4    
    275500   2096.3347     -228087.12      0             -210745.15      49181.33       1460556.1    
    276000   2095.98       -227993.26      0             -210654.23      49565.723      1460707.9    
    276500   2102.6796     -227994.65      0             -210600.19      49571.285      1460859.5    
    277000   2111.5148     -228048.84      0             -210581.29      49038.139      1461011.1    
    277500   2110.0957     -228038.74      0             -210582.93      49206.806      1461162.6    
    278000   2097.6472     -227954.04      0             -210601.21      49310.835      1461314      
    278500   2094.1274     -227960.64      0             -210636.93      49559.998      1461465.4    
    279000   2093.1438     -228002.57      0             -210686.99      49049.511      1461616.7    
    279500   2090.034      -228026.46      0             -210736.61      49149.679      1461767.9    
    280000   2088.3082     -228042.62      0             -210767.04      48948.453      1461919      
    280500   2090.6294     -228062.36      0             -210767.59      48835.755      1462070.1    
    281000   2091.0126     -228003.02      0             -210705.08      48899.957      1462221      
    281500   2110.8341     -228072.72      0             -210610.81      48870.964      1462371.9    
    282000   2100.5299     -227949.48      0             -210572.8       48891.915      1462522.7    
    282500   2105.2273     -227980.95      0             -210565.42      48811.516      1462673.5    
    283000   2106.6369     -228004.98      0             -210577.79      49090.124      1462824.2    
    283500   2106.8979     -228035.39      0             -210606.04      48909.864      1462974.8    
    284000   2106.2472     -228070.46      0             -210646.49      48304.722      1463125.4    
    284500   2097.3049     -228039.9       0             -210689.9       48579.311      1463275.9    
    285000   2095.0118     -228057.14      0             -210726.11      48201.461      1463426.3    
    285500   2087.0045     -228007.55      0             -210742.76      48309.412      1463576.6    
    286000   2091.8412     -228024.01      0             -210719.22      48417.002      1463726.8    
    286500   2099.5916     -228005.29      0             -210636.38      48577.401      1463876.9    
    287000   2095.0609     -227900.47      0             -210569.04      48843.047      1464027      
    287500   2094.5189     -227870.56      0             -210543.61      48846.609      1464177      
    288000   2105.0584     -227956.52      0             -210542.39      48380.72       1464327      
    288500   2106.2395     -227984.04      0             -210560.13      48383.459      1464476.9    
    289000   2104.2241     -228003.35      0             -210596.11      48137.539      1464626.7    
    289500   2099.3456     -228011.28      0             -210644.4       47873.963      1464776.5    
    290000   2089.5987     -227981.32      0             -210695.08      48123.711      1464926.2    
    290500   2091.5146     -228033.55      0             -210731.46      47733.303      1465075.8    
    291000   2095.7865     -228077.53      0             -210740.1       47706.203      1465225.4    
    291500   2102.7598     -228085.26      0             -210690.14      47813.847      1465374.8    
    292000   2096.542      -227935.93      0             -210592.25      48233.46       1465524.2    
    292500   2107.3477     -227975.56      0             -210542.49      48250.253      1465673.5    
    293000   2107.1027     -227956.99      0             -210525.94      48084.527      1465822.7    
    293500   2102.3257     -227921.79      0             -210530.26      48102.791      1465971.9    
    294000   2104.5317     -227963.07      0             -210553.29      48053.098      1466121.1    
    294500   2099.0076     -227955.55      0             -210591.47      48080.167      1466270.2    
    295000   2094.2716     -227961.68      0             -210636.77      47862.78       1466419.2    
    295500   2097.4233     -228026.39      0             -210675.41      47475.001      1466568.2    
    296000   2092.9735     -228014.65      0             -210700.49      47699.99       1466717.1    
    296500   2096.5933     -228042.07      0             -210697.96      47559.615      1466865.9    
    297000   2092.3804     -227948.63      0             -210639.37      47673.393      1467014.6    
    297500   2101.7636     -227940.8       0             -210553.91      47863.533      1467163.2    
    298000   2105.4658     -227929.99      0             -210512.48      47503.962      1467311.8    
    298500   2111.7117     -227972.92      0             -210503.74      47282.528      1467460.4    
    299000   2101.856      -227902.58      0             -210514.93      47751.204      1467608.9    
    299500   2101.0167     -227923.32      0             -210542.61      47754.769      1467757.3    
    300000   2099.0005     -227950.82      0             -210586.8       47339.432      1467905.7    
    300500   2100.7638     -228018.46      0             -210639.85      47298.597      1468054      
    301000   2086.7069     -227946.89      0             -210684.56      47325.706      1468202.2    
    301500   2089.537      -227993.32      0             -210707.59      47340.199      1468350.4    
    302000   2089.6652     -227975         0             -210688.21      46874.352      1468498.5    
    302500   2099.1021     -227957.05      0             -210592.18      47117.721      1468646.5    
    303000   2094.9184     -227851.16      0             -210520.9       47585.185      1468794.4    
    303500   2106.7153     -227922.71      0             -210494.86      47076.966      1468942.2    
    304000   2105.6069     -227909.95      0             -210491.27      47402.466      1469090      
    304500   2105.1144     -227919.7       0             -210505.1       47075.456      1469237.7    
    305000   2104.1195     -227941.97      0             -210535.6       46741.549      1469385.4    
    305500   2100.0882     -227952.14      0             -210579.11      46635.726      1469533      
    306000   2095.0647     -227956.54      0             -210625.08      46815.648      1469680.6    
    306500   2090.3489     -227949.9       0             -210657.45      46966.059      1469828.1    
    307000   2089.0948     -227947.52      0             -210665.44      46889.548      1469975.5    
    307500   2094.3924     -227949.49      0             -210623.59      46951.894      1470122.8    
    308000   2099.6541     -227900.39      0             -210530.96      46976.871      1470270      
    308500   2115.259      -227977.2       0             -210478.68      46589.6        1470417.2    
    309000   2104.0957     -227873.23      0             -210467.05      47011.319      1470564.3    
    309500   2100.7684     -227855.94      0             -210477.29      46963.948      1470711.4    
    310000   2095.5224     -227840.28      0             -210505.03      47008.943      1470858.4    
    310500   2095.0887     -227876.39      0             -210544.73      46649.303      1471005.4    
    311000   2090.1452     -227878.82      0             -210588.06      46497.413      1471152.3    
    311500   2105.6637     -228047.27      0             -210628.13      46290.703      1471299.1    
    312000   2090.6201     -227950.91      0             -210656.21      46352.762      1471445.9    
    312500   2089.9127     -227946.82      0             -210657.97      46224.181      1471592.5    
    313000   2091.0009     -227901.88      0             -210604.03      46552.395      1471739.1    
    313500   2101.4836     -227903.47      0             -210518.9       46613.788      1471885.6    
    314000   2105.5273     -227889.79      0             -210471.77      46180.807      1472032      
    314500   2102.7096     -227849.54      0             -210454.83      46728.431      1472178.4    
    315000   2107.3029     -227889.21      0             -210456.51      46588.11       1472324.8    
    315500   2096.2839     -227820.81      0             -210479.26      46899.419      1472471.1    
    316000   2098.7845     -227883.7       0             -210521.47      46186.955      1472617.3    
    316500   2097.1814     -227921.29      0             -210572.31      45919.959      1472763.5    
    317000   2090.7111     -227911.89      0             -210616.44      46019.045      1472909.6    
    317500   2091.0569     -227937.91      0             -210639.6       45815.724      1473055.7    
    318000   2091.3439     -227923.06      0             -210622.38      45885.958      1473201.6    
    318500   2093.9366     -227855.36      0             -210533.22      46343.22       1473347.5    
    319000   2106.6638     -227884.09      0             -210456.67      46003.998      1473493.3    
    319500   2107.0041     -227863.34      0             -210433.11      46301.97       1473639.1    
    320000   2101.3594     -227818.77      0             -210435.23      46515.695      1473784.8    
    320500   2108.274      -227894.85      0             -210454.11      46037.228      1473930.4    
    321000   2099.6717     -227859.21      0             -210489.64      45947.929      1474076      
    321500   2092.2381     -227842.86      0             -210534.77      46052.667      1474221.6    
    322000   2096.0064     -227917.59      0             -210578.34      45690.391      1474367.1    
    322500   2092.6225     -227916.97      0             -210605.71      45364.62       1474512.5    
    323000   2097.3452     -227955.4       0             -210605.07      45520.432      1474657.8    
    323500   2094.9741     -227875.55      0             -210544.84      45735.207      1474803      
    324000   2103.9843     -227859.09      0             -210453.84      46005.302      1474948.2    
    324500   2105.9861     -227836.97      0             -210415.15      46251.957      1475093.3    
    325000   2110.1288     -227865.4       0             -210409.32      45677.163      1475238.4    
    325500   2102.1722     -227813.35      0             -210423.09      45869.917      1475383.5    
    326000   2100.8329     -227832         0             -210452.81      45730.018      1475528.5    
    326500   2093.992      -227818.09      0             -210495.5       45626.129      1475673.4    
    327000   2091.382      -227843.27      0             -210542.27      45551.373      1475818.3    
    327500   2095.4432     -227915.98      0             -210581.39      45291.12       1475963.1    
    328000   2093.5714     -227921.26      0             -210602.15      45107.673      1476107.8    
    328500   2087.1366     -227851.8       0             -210585.92      45323.034      1476252.4    
    329000   2097.0566     -227855.07      0             -210507.13      45167.401      1476397      
    329500   2102.1248     -227820.98      0             -210431.11      45566.491      1476541.5    
    330000   2099.9067     -227770.74      0             -210399.22      45243.753      1476685.9    
    330500   2101.8408     -227780.82      0             -210393.3       45538.27       1476830.3    
    331000   2106.0592     -227828.67      0             -210406.25      45393.041      1476974.7    
    331500   2096.8412     -227783.42      0             -210437.26      45171.342      1477119      
    332000   2098.7453     -227844.33      0             -210482.41      45092.656      1477263.2    
    332500   2095.9638     -227870.39      0             -210531.49      44774.574      1477407.4    
    333000   2089.5585     -227856.22      0             -210570.31      44593.955      1477551.5    
    333500   2082.753      -227815.91      0             -210586.3       44990.625      1477695.5    
    334000   2091.6649     -227856.98      0             -210553.64      44955.203      1477839.5    
    334500   2097.3276     -227808.06      0             -210457.87      45059.361      1477983.3    
    335000   2096.9797     -227743.23      0             -210395.92      44964.361      1478127.1    
    335500   2098.1757     -227733.98      0             -210376.78      45230.56       1478270.9    
    336000   2108.0758     -227819.51      0             -210380.41      44989.347      1478414.6    
    336500   2099.8017     -227771.95      0             -210401.3       44989.753      1478558.3    
    337000   2099.7924     -227809.7       0             -210439.13      44989.305      1478701.9    
    337500   2102.0113     -227874.14      0             -210485.21      44341.174      1478845.4    
    338000   2091.118      -227825.76      0             -210526.95      44618.412      1478988.9    
    338500   2094.2785     -227875.76      0             -210550.8       44307.652      1479132.3    
    339000   2088.4        -227817.45      0             -210541.12      44513.596      1479275.6    
    339500   2097.2509     -227816.01      0             -210466.46      44555.035      1479418.8    
    340000   2099.9935     -227755.69      0             -210383.46      44878.372      1479562      
    340500   2102.9456     -227750.3       0             -210353.64      44754.343      1479705.1    
    341000   2103.1283     -227751.13      0             -210352.96      44586.532      1479848.2    
    341500   2107.8702     -227808.3       0             -210370.9       44515.32       1479991.2    
    342000   2098.6071     -227769.19      0             -210408.42      44432.727      1480134.2    
    342500   2098.4183     -227815.58      0             -210456.37      44386.562      1480277.1    
    343000   2095.3268     -227833.39      0             -210499.76      43887.071      1480420      
    343500   2096.4525     -227870.13      0             -210527.18      44125.806      1480562.8    
    344000   2090.5268     -227820.53      0             -210526.6       44288.42       1480705.5    
    344500   2102.8278     -227863.16      0             -210467.47      44045.845      1480848.1    
    345000   2099.8075     -227745.6       0             -210374.9       44475.948      1480990.7    
    345500   2104.9945     -227744.96      0             -210331.35      44279.808      1481133.2    
    346000   2111.4652     -227789.99      0             -210322.85      44112.323      1481275.7    
    346500   2099.4955     -227706.41      0             -210338.29      44743.532      1481418.1    
    347000   2105.9631     -227795.68      0             -210374.06      43966.45       1481560.5    
    347500   2096.5848     -227767.82      0             -210423.78      44364.576      1481702.8    
    348000   2097.1485     -227819.68      0             -210470.98      43841.062      1481845      
    348500   2093.8487     -227822.24      0             -210500.84      44080.775      1481987.2    
    349000   2099.0591     -227869.92      0             -210505.41      43630.981      1482129.4    
    349500   2087.4574     -227726.88      0             -210458.35      44148.32       1482271.4    
    350000   2107.3885     -227786.62      0             -210353.2       43926.989      1482413.4    
    350500   2100.632      -227682.78      0             -210305.26      44208.96       1482555.3    
    351000   2102.7147     -227695.31      0             -210300.56      44024.525      1482697.2    
    351500   2101.7692     -227707.34      0             -210320.41      43784.551      1482839.1    
    352000   2111.6178     -227827.8       0             -210359.4       43498.569      1482980.9    
    352500   2099.8353     -227778.42      0             -210407.49      43850.599      1483122.6    
    353000   2096.1863     -227790.83      0             -210450.09      43851.929      1483264.3    
    353500   2095.6007     -227807.31      0             -210471.41      43210.45       1483405.9    
    354000   2090.2084     -227756.46      0             -210465.17      43585.382      1483547.4    
    354500   2095.9167     -227745.9       0             -210407.39      43530.307      1483688.9    
    355000   2103.9878     -227714.96      0             -210309.68      43823.053      1483830.3    
    355500   2107.3371     -227703.81      0             -210270.82      43363.373      1483971.6    
    356000   2098.0069     -227629.85      0             -210274.05      43802.335      1484112.9    
    356500   2105.8885     -227723.1       0             -210302.1       43434.098      1484254.2    
    357000   2093.1018     -227660.1       0             -210344.87      43518.9        1484395.4    
    357500   2087.9386     -227664.03      0             -210391.52      43645.589      1484536.6    
    358000   2104.2675     -227835.11      0             -210427.51      43119.293      1484677.7    
    358500   2092.926      -227759.45      0             -210445.67      43143.016      1484818.7    
    359000   2099.2556     -227804.21      0             -210438.07      42963.657      1484959.6    
    359500   2100.1986     -227746.94      0             -210373         43303.469      1485100.5    
    360000   2108.0954     -227712.38      0             -210273.12      43589.09       1485241.3    
    360500   2105.9823     -227663.81      0             -210242.03      43540.978      1485382.1    
    361000   2102.3605     -227643.59      0             -210251.77      43499.107      1485522.8    
    361500   2103.1349     -227684.45      0             -210286.23      43242.256      1485663.5    
    362000   2105.5178     -227754.14      0             -210336.2       42967.142      1485804.2    
    362500   2094.9988     -227715.87      0             -210384.95      43313.193      1485944.7    
    363000   2097.3692     -227767.52      0             -210417         42594.619      1486085.3    
    363500   2100.7817     -227803.83      0             -210425.07      42591.601      1486225.7    
    364000   2099.0525     -227772.46      0             -210408.01      42726.684      1486366.1    
    364500   2100.1616     -227724.55      0             -210350.92      43001.024      1486506.4    
    365000   2109.5801     -227705.15      0             -210253.61      42846.456      1486646.6    
    365500   2097.7647     -227569.02      0             -210215.21      43322.148      1486786.8    
    366000   2105.77       -227644.76      0             -210224.74      43110.234      1486927      
    366500   2108.9042     -227703.87      0             -210257.92      42733.364      1487067.1    
    367000   2106.2475     -227726.79      0             -210302.81      42450.752      1487207.2    
    367500   2094.894      -227677.77      0             -210347.71      42718.387      1487347.3    
    368000   2098.7285     -227741.45      0             -210379.68      42226.712      1487487.2    
    368500   2097.0449     -227742.1       0             -210394.25      42348.532      1487627.1    
    369000   2097.2392     -227735.82      0             -210386.37      42537.068      1487766.9    
    369500   2100.0563     -227710.37      0             -210337.61      42384.173      1487906.7    
    370000   2102.0342     -227636.01      0             -210246.89      42912.989      1488046.3    
    370500   2105.5689     -227620.68      0             -210202.32      43062.733      1488186      
    371000   2103.5249     -227605.82      0             -210204.37      42872.62       1488325.6    
    371500   2101.1969     -227613.43      0             -210231.23      42370.776      1488465.2    
    372000   2105.0242     -227684.95      0             -210271.09      42352.225      1488604.7    
    372500   2101.8498     -227700.25      0             -210312.65      42288.39       1488744.1    
    373000   2097.4675     -227696.42      0             -210345.08      42261.179      1488883.5    
    373500   2088.8315     -227641.38      0             -210361.48      42303.704      1489022.9    
    374000   2095.6464     -227693.71      0             -210357.43      42146.771      1489162.1    
    374500   2104.9848     -227748.11      0             -210334.58      41983.321      1489301.3    
    375000   2100.5309     -227648.2       0             -210271.51      42293.053      1489440.4    
    375500   2109.8731     -227612.38      0             -210158.41      42464.894      1489579.5    
    376000   2112.2483     -227601.38      0             -210127.76      42480.349      1489718.6    
    376500   2110.4887     -227609.42      0             -210150.36      42557.888      1489857.6    
    377000   2103.2928     -227599.67      0             -210200.13      42448.761      1489996.6    
    377500   2094.4755     -227588.37      0             -210261.78      42133.618      1490135.5    
    378000   2094.9715     -227642.54      0             -210311.84      42049.605      1490274.4    
    378500   2099.8027     -227713.95      0             -210343.29      42068.751      1490413.2    
    379000   2103.0084     -227751.58      0             -210354.4       41341.058      1490552      
    379500   2090.4695     -227637.34      0             -210343.88      41855.964      1490690.7    
    380000   2093.3974     -227621.91      0             -210304.24      42369.076      1490829.3    
    380500   2108.3379     -227677.52      0             -210236.25      41678.068      1490967.8    
    381000   2104.1269     -227587.06      0             -210180.63      42180.29       1491106.3    
    381500   2104.3975     -227574.97      0             -210166.3       41847.505      1491244.7    
[...]
   3908500   2105.7175     -214218.88      0             -196799.29      9822.8416      2045975.4    
   3909000   2096.5939     -214200.83      0             -196856.72      10042.342      2046064.6    
   3909500   2095.7273     -214280.33      0             -196943.39      10181.53       2046153.7    
   3910000   2087.9762     -214267.67      0             -196994.84      9815.9693      2046242.9    
   3910500   2097.2321     -214357.06      0             -197007.67      10167.631      2046332      
   3911000   2085.89       -214252.63      0             -196997.07      9756.6841      2046421.1    
   3911500   2093.0004     -214278.48      0             -196964.09      9741.1872      2046510.1    
   3912000   2099.2347     -214278.87      0             -196912.91      9807.5706      2046599.1    
   3912500   2113.6813     -214347.68      0             -196862.21      9789.5784      2046688.1    
   3913000   2101.8705     -214221.91      0             -196834.15      9936.3368      2046777      
   3913500   2099.2363     -214191.42      0             -196825.44      10019.299      2046866      
   3914000   2098.2762     -214180.93      0             -196822.9       10137.543      2046954.9    
   3914500   2109.3725     -214275.48      0             -196825.65      9857.0131      2047043.8    
   3915000   2105.9835     -214258.56      0             -196836.77      10151.879      2047132.8    
   3915500   2098.4923     -214218.44      0             -196858.62      9825.9513      2047221.7    
   3916000   2100.4168     -214255.52      0             -196879.78      9685.6583      2047310.6    
   3916500   2086.2188     -214161.22      0             -196902.93      10140.854      2047399.4    
   3917000   2100.5862     -214324.76      0             -196947.62      9938.2895      2047488.3    
   3917500   2097.4151     -214364.92      0             -197014.02      10200.847      2047577.1    
   3918000   2088.4197     -214347.96      0             -197071.47      9996.3164      2047666      
   3918500   2088.5596     -214369.73      0             -197092.08      10028.475      2047754.8    
   3919000   2093.2087     -214374.77      0             -197058.66      9737.7081      2047843.5    
   3919500   2095.8751     -214285.63      0             -196947.47      9848.6992      2047932.2    
   3920000   2096.8134     -214233.96      0             -196888.03      9757.6536      2048020.9    
   3920500   2099.3185     -214239.15      0             -196872.5       9684.492       2048109.5    
   3921000   2096.3888     -214206.41      0             -196863.99      9888.4372      2048198.1    
   3921500   2101.9648     -214258.41      0             -196869.86      9833.9188      2048286.7    
   3922000   2100.1828     -214267.97      0             -196894.17      9725.1964      2048375.3    
   3922500   2103.3922     -214318.39      0             -196918.04      9925.4139      2048463.8    
   3923000   2095.8853     -214276.79      0             -196938.54      9996.2254      2048552.3    
   3923500   2095.2384     -214294.11      0             -196961.21      10127.394      2048640.8    
   3924000   2099.166      -214344.23      0             -196978.84      9948.2337      2048729.3    
   3924500   2092.6724     -214291.9       0             -196980.23      9726.1272      2048817.8    
   3925000   2097.1815     -214306.6       0             -196957.62      9463.2609      2048906.3    
   3925500   2105.0092     -214313.59      0             -196899.86      9838.4813      2048994.7    
   3926000   2108.982      -214288.25      0             -196841.66      9688.8952      2049083.1    
   3926500   2115.3325     -214300.2       0             -196801.07      9740.2366      2049171.5    
   3927000   2105.5908     -214202.42      0             -196783.88      10102.887      2049259.8    
   3927500   2105.7906     -214195         0             -196774.8       9913.3686      2049348.2    
   3928000   2097.3746     -214131.77      0             -196781.2       10012.777      2049436.5    
   3928500   2102.2867     -214203.82      0             -196812.61      9968.0407      2049524.9    
   3929000   2103.7509     -214301.44      0             -196898.12      9753.6791      2049613.2    
   3929500   2092.9479     -214283.4       0             -196969.44      9890.0978      2049701.6    
   3930000   2094.8009     -214321.06      0             -196991.78      9550.1494      2049789.9    
   3930500   2095.3582     -214321.79      0             -196987.9       9615.4042      2049878.2    
   3931000   2101.3868     -214352.97      0             -196969.21      9564.9441      2049966.5    
   3931500   2094.0104     -214246.69      0             -196923.95      9841.8067      2050054.7    
   3932000   2107.4879     -214292.13      0             -196857.9       10028.829      2050143      
   3932500   2109.587      -214265.68      0             -196814.07      10101.683      2050231.2    
   3933000   2097.7768     -214158.29      0             -196804.38      9758.2449      2050319.5    
   3933500   2098.0497     -214161.26      0             -196805.1       9440.8609      2050407.7    
   3934000   2104.7869     -214221.53      0             -196809.64      10043.627      2050495.8    
   3934500   2100.1157     -214194.8       0             -196821.55      9950.7455      2050584      
   3935000   2090.809      -214137.86      0             -196841.6       10122.959      2050672.2    
   3935500   2104.2742     -214269.03      0             -196861.38      9656.8336      2050760.4    
   3936000   2093.2762     -214196.7       0             -196880.03      9360.9315      2050848.6    
   3936500   2100.85       -214269.87      0             -196890.54      9881.295       2050936.7    
   3937000   2088.1989     -214173.49      0             -196898.83      9815.5919      2051024.8    
   3937500   2097.7172     -214254.44      0             -196901.03      9625.0351      2051112.9    
   3938000   2099.0701     -214261.42      0             -196896.82      10166.111      2051200.9    
   3938500   2103.4902     -214286.72      0             -196885.55      9684.4338      2051288.9    
   3939000   2097.2734     -214212.08      0             -196862.34      9798.751       2051376.9    
   3939500   2099.4347     -214193.56      0             -196825.94      9602.0201      2051464.8    
   3940000   2100.8092     -214166.99      0             -196788         9902.6564      2051552.8    
   3940500   2098.8042     -214122.56      0             -196760.16      9895.797       2051640.7    
   3941000   2105.6515     -214169.29      0             -196750.25      10065.679      2051728.6    
   3941500   2108.4847     -214210.85      0             -196768.37      9889.7589      2051816.5    
   3942000   2104.5199     -214224.78      0             -196815.09      9955.3444      2051904.5    
   3942500   2097.9316     -214227.48      0             -196872.3       9640.2563      2051992.4    
   3943000   2084.1357     -214158.25      0             -196917.2       9907.8675      2052080.3    
   3943500   2095.1161     -214267.71      0             -196935.82      10127.572      2052168.2    
   3944000   2099.4557     -214301.04      0             -196933.25      9492.6249      2052256.1    
   3944500   2092.6352     -214220.9       0             -196909.53      9640.4448      2052343.9    
   3945000   2098.3981     -214211.58      0             -196852.54      9642.8622      2052431.7    
   3945500   2114.106      -214230.4       0             -196741.41      9857.9111      2052519.5    
   3946000   2113.8977     -214181.57      0             -196694.31      9543.1191      2052607.2    
   3946500   2117.6752     -214218.42      0             -196699.91      9734.154       2052695      
   3947000   2111.5057     -214210.82      0             -196743.35      9901.06        2052782.7    
   3947500   2095.6899     -214132.3       0             -196795.66      9741.9433      2052870.5    
   3948000   2102.761      -214230.08      0             -196834.95      9572.7414      2052958.2    
   3948500   2098.111      -214216.95      0             -196860.29      9411.6897      2053045.9    
   3949000   2102.9971     -214277.72      0             -196880.64      9390.6975      2053133.6    
   3949500   2095.0432     -214221.18      0             -196889.89      9857.8516      2053221.2    
   3950000   2108.7976     -214344.25      0             -196899.18      9698.2692      2053308.8    
   3950500   2098.8755     -214282.57      0             -196919.58      9350.5572      2053396.4    
   3951000   2092.7993     -214255.67      0             -196942.95      9469.2983      2053483.9    
   3951500   2092.1021     -214248.12      0             -196941.17      9881.3581      2053571.4    
   3952000   2101.4264     -214292.61      0             -196908.52      9435.4862      2053658.9    
   3952500   2103.7734     -214256.54      0             -196853.03      9872.8158      2053746.3    
   3953000   2101.3574     -214186.91      0             -196803.39      9506.9891      2053833.8    
   3953500   2101.3258     -214157.62      0             -196774.36      9542.3677      2053921.2    
   3954000   2101.3617     -214142.1       0             -196758.54      9503.9727      2054008.6    
   3954500   2096.9878     -214097.12      0             -196749.75      9758.6169      2054096      
   3955000   2101.2091     -214145.34      0             -196763.05      9546.4845      2054183.3    
   3955500   2106.7214     -214228.31      0             -196800.41      9935.3482      2054270.7    
   3956000   2095.4209     -214205.97      0             -196871.56      9447.9286      2054358.1    
   3956500   2101.7519     -214324.03      0             -196937.24      9593.1662      2054445.4    
   3957000   2087.4073     -214230.48      0             -196962.36      9572.2212      2054532.7    
   3957500   2097.0285     -214292.44      0             -196944.73      9341.9615      2054619.9    
   3958000   2096.8644     -214240.64      0             -196894.29      9298.8648      2054707.2    
   3958500   2102.18       -214223.45      0             -196833.12      9444.5527      2054794.3    
   3959000   2100.7875     -214187.58      0             -196808.77      9908.0757      2054881.4    
   3959500   2096.153      -214147.17      0             -196806.71      9894.2472      2054968.6    
   3960000   2101.8333     -214191.71      0             -196804.25      9720.7458      2055055.7    
   3960500   2090.3024     -214095.85      0             -196803.79      9799.187       2055142.9    
   3961000   2103.7862     -214203.53      0             -196799.92      9658.3395      2055230      
   3961500   2101.6681     -214174.33      0             -196788.24      9669.2089      2055317.2    
   3962000   2109.3536     -214224.86      0             -196775.19      9686.953       2055404.3    
   3962500   2097.5558     -214098.9       0             -196746.83      9829.7561      2055491.5    
   3963000   2099.5272     -214071.64      0             -196703.26      9493.5573      2055578.6    
   3963500   2103.9651     -214084.79      0             -196679.7       9751.1747      2055665.7    
   3964000   2108.1125     -214134.31      0             -196694.91      9753.7378      2055752.9    
   3964500   2103.145      -214149.51      0             -196751.2       9535.996       2055840      
   3965000   2102.1827     -214205.09      0             -196814.74      9520.7102      2055927.1    
   3965500   2092.6556     -214166.06      0             -196854.52      9610.4296      2056014.2    
   3966000   2097.333      -214219.44      0             -196869.21      9624.6993      2056101.3    
   3966500   2101.748      -214252.74      0             -196865.99      9111.7092      2056188.4    
   3967000   2086.7024     -214112.34      0             -196850.05      9423.1213      2056275.4    
   3967500   2096.9707     -214157.02      0             -196809.78      9784.5034      2056362.3    
   3968000   2104.9212     -214162.89      0             -196749.89      9523.9717      2056449.3    
   3968500   2111.7029     -214180.78      0             -196711.67      9632.0357      2056536.2    
   3969000   2107.4945     -214139.77      0             -196705.48      9703.5908      2056623.1    
   3969500   2111.6778     -214182.71      0             -196713.81      9599.062       2056710      
   3970000   2098.3971     -214090.63      0             -196731.6       9966.6718      2056796.9    
   3970500   2105.6049     -214176.41      0             -196757.75      9810.8502      2056883.8    
   3971000   2109.6512     -214246.21      0             -196794.08      9478.0016      2056970.8    
   3971500   2089.0073     -214116.31      0             -196834.95      9812.7274      2057057.7    
   3972000   2100.0639     -214233.34      0             -196860.52      9293.7146      2057144.6    
   3972500   2095.5912     -214203.61      0             -196867.79      9486.3665      2057231.5    
   3973000   2090.6065     -214147.09      0             -196852.5       9330.5388      2057318.3    
   3973500   2102.0861     -214187.28      0             -196797.73      9683.6677      2057405.2    
   3974000   2102.1121     -214112.52      0             -196722.76      9690.1591      2057492      
   3974500   2112.9695     -214150.55      0             -196670.97      9735.3985      2057578.9    
   3975000   2110.4035     -214118.12      0             -196659.76      9704.9673      2057665.7    
   3975500   2100.0694     -214058         0             -196685.14      9529.9528      2057752.6    
   3976000   2103.6695     -214130.46      0             -196727.81      9229.4655      2057839.4    
   3976500   2102.0915     -214153.31      0             -196763.72      9399.6085      2057926.3    
   3977000   2092.4197     -214088.16      0             -196778.58      9633.8517      2058013.1    
   3977500   2101.6685     -214170.2       0             -196784.11      9296.5255      2058099.9    
   3978000   2098.3132     -214146.52      0             -196788.18      9344.7625      2058186.8    
   3978500   2109.3443     -214237.05      0             -196787.46      9453.008       2058273.5    
   3979000   2110.1241     -214243.05      0             -196787         9544.5125      2058360.3    
   3979500   2094.9211     -214114.79      0             -196784.51      9583.5091      2058447      
   3980000   2109.7225     -214233.82      0             -196781.1       9235.0577      2058533.8    
   3980500   2096.979      -214154.08      0             -196806.78      9671.5323      2058620.5    
   3981000   2100.1181     -214229.61      0             -196856.34      9264.0476      2058707.1    
   3981500   2088.1197     -214167.03      0             -196893.02      9239.7335      2058793.7    
   3982000   2090.5685     -214187.82      0             -196893.55      9261.0799      2058880.3    
   3982500   2097.4558     -214220.97      0             -196869.73      9782.6069      2058966.8    
   3983000   2107.7959     -214255.73      0             -196818.95      9401.8287      2059053.4    
   3983500   2110.3184     -214211.39      0             -196753.74      9137.1256      2059139.8    
   3984000   2102.5593     -214112.01      0             -196718.55      9104.1035      2059226.3    
   3984500   2100.369      -214089.23      0             -196713.89      9284.2324      2059312.7    
   3985000   2107.3131     -214160.22      0             -196727.43      9181.0278      2059399.1    
   3985500   2102.9662     -214143.08      0             -196746.25      9531.3418      2059485.4    
   3986000   2102.4086     -214159.64      0             -196767.42      9506.3934      2059571.8    
   3986500   2096.827      -214145.21      0             -196799.17      9089.8054      2059658.1    
   3987000   2087.7769     -214142.34      0             -196871.16      9206.2208      2059744.4    
   3987500   2093.2661     -214276.33      0             -196959.75      9292.1112      2059830.6    
   3988000   2087.3865     -214260.6       0             -196992.66      9275.405       2059916.8    
   3988500   2086.7793     -214237.1       0             -196974.17      9193.8924      2060002.9    
   3989000   2092.558      -214228.87      0             -196918.15      9313.6951      2060089      
   3989500   2090.9618     -214151.64      0             -196854.12      9355.695       2060175.1    
   3990000   2095.7497     -214149.58      0             -196812.45      9370.6631      2060261.2    
   3990500   2089.6679     -214074.13      0             -196787.31      9360.7959      2060347.2    
   3991000   2105.4929     -214182.78      0             -196765.04      9258.7318      2060433.3    
   3991500   2098.9753     -214112.86      0             -196749.04      8950.43        2060519.2    
   3992000   2099.4617     -214095.47      0             -196727.63      9215.0378      2060605.2    
   3992500   2103.2452     -214084.79      0             -196685.66      9353.2957      2060691.1    
   3993000   2108.2178     -214079.05      0             -196638.77      9366.2298      2060777      
   3993500   2108.1902     -214038.95      0             -196598.9       9712.4161      2060862.9    
   3994000   2111.9277     -214056.69      0             -196585.72      9644.5245      2060948.9    
   3994500   2116.6885     -214125.81      0             -196615.46      9216.4134      2061034.8    
   3995000   2097.2323     -214055.63      0             -196706.23      9606.9361      2061120.8    
   3995500   2093.0951     -214096.59      0             -196781.42      9257.0523      2061206.7    
   3996000   2095.1652     -214149.97      0             -196817.67      9374.7455      2061292.7    
   3996500   2086.5998     -214100.9       0             -196839.46      9361.2746      2061378.6    
   3997000   2090.6062     -214127.64      0             -196833.06      9485.0342      2061464.5    
   3997500   2093.8836     -214126.01      0             -196804.31      9360.6919      2061550.5    
   3998000   2098.9203     -214114.08      0             -196750.72      9230.0932      2061636.3    
   3998500   2101.2556     -214072.78      0             -196690.1       9536.7594      2061722.2    
   3999000   2098.0686     -214014.09      0             -196657.77      9531.1356      2061808      
   3999500   2103.9991     -214056.3       0             -196650.92      9061.8489      2061893.9    
   4000000   2099.6224     -214035.68      0             -196666.51      9595.4908      2061979.7    
Loop time of 162941 on 4 procs for 4000000 steps with 64000 atoms

Performance: 2.121 ns/day, 11.315 hours/ns, 24.549 timesteps/s, 1.571 Matom-step/s
93.4% CPU use with 4 MPI tasks x no OpenMP threads

MPI task timing breakdown:
Section |  min time  |  avg time  |  max time  |%varavg| %total
---------------------------------------------------------------
Pair    | 1.1305e+05 | 1.297e+05  | 1.461e+05  |4415.7 | 79.60
Neigh   | 7724.8     | 8628.9     | 9514.1     | 951.5 |  5.30
Comm    | 2993.1     | 20352      | 37935      |11811.2 | 12.49
Output  | 1072.1     | 1072.2     | 1072.2     |   0.2 |  0.66
Modify  | 2887       | 2949.4     | 3013.1     | 110.1 |  1.81
Other   |            | 240.3      |            |       |  0.15

Nlocal:          16000 ave       16107 max       15939 min
Histogram: 1 1 1 0 0 0 0 0 0 1
Nghost:        17962.2 ave       18034 max       17887 min
Histogram: 1 0 0 0 1 1 0 0 0 1
Neighs:      1.377e+06 ave 1.40123e+06 max 1.35605e+06 min
Histogram: 1 1 0 0 0 0 1 0 0 1

Total # of neighbors = 5507988
Ave neighs/atom = 86.062313
Neighbor list builds = 167925
Dangerous builds = 0
Total wall time: 45:15:41
