LAMMPS (23 Jun 2022 - Update 4)
# 3d vashishta

units		metal
atom_style	atomic

boundary        p p p


lattice		custom 1              a1 5.5392  0. 0.              a2 0.0 5.5392  0.0            a3 0.0 0.0 5.5392             basis 0.   0.   0.            basis 0.5  0.5  0.            basis 0.5  0.   0.5            basis 0.   0.5  0.5            basis 0.5  0.   0.             basis 0.   0.5  0.             basis 0.   0.   0.5             basis 0.5  0.5  0.5
Lattice spacing in x,y,z = 5.5392 5.5392 5.5392


region		caixa block 0 10 0 10 0 10
create_box	2 caixa
Created orthogonal box = (0 0 0) to (55.392 55.392 55.392)
  1 by 2 by 5 MPI processor grid
create_atoms	1 region caixa basis 1 1 basis 2 1 basis 3 1 basis 4 1             	  basis 5 2 basis 6 2 basis 7 2 basis 8 2
Created 8000 atoms
  using lattice units in orthogonal box = (0 0 0) to (55.392 55.392 55.392)
  create_atoms CPU = 0.001 seconds

mass		1 137.33
mass		2 15.9994

#velocity	all create 2100. 473204 dist gaussian
velocity        all create 100. 473204 dist gaussian

group		Ba type 1
4000 atoms in group Ba
group		O type 2
4000 atoms in group O

pair_style	table linear 50000
pair_coeff	1 1 Pot_BaO Vash_11
WARNING: 23463 of 50000 force values in table Vash_11 are inconsistent with -dE/dr.
WARNING:  Should only be flagged at inflection points (../pair_table.cpp:463)
WARNING: 43814 of 50000 distance values in table 1e-06 with relative error
WARNING:  over Vash_11 to re-computed values (../pair_table.cpp:471)
pair_coeff	1 2 Pot_BaO Vash_12
WARNING: 23576 of 50000 force values in table Vash_12 are inconsistent with -dE/dr.
WARNING:  Should only be flagged at inflection points (../pair_table.cpp:463)
WARNING: 43814 of 50000 distance values in table 1e-06 with relative error
WARNING:  over Vash_12 to re-computed values (../pair_table.cpp:471)
pair_coeff	2 2 Pot_BaO Vash_22
WARNING: 23794 of 50000 force values in table Vash_22 are inconsistent with -dE/dr.
WARNING:  Should only be flagged at inflection points (../pair_table.cpp:463)
WARNING: 43814 of 50000 distance values in table 1e-06 with relative error
WARNING:  over Vash_22 to re-computed values (../pair_table.cpp:471)

timestep	0.001   #1.0 fs

thermo		500         # intervalo para mostrar output instantaneos.

neighbor	2.0 bin
neigh_modify	every 8 delay 0 check yes

restart		1000 BaO-nvt.T2100

#fix		ensemble all nve
#fix		ensemble all nvt temp 300 300 0.1 iso 0.0 0.0 0.5 drag 2.0
#fix    ensemble all nvt temp 2100 2100 0.1

fix    ensemble all nvt temp 100 100 0.05


run		2000000
Generated 0 of 1 mixed pair_coeff terms from geometric mixing rule
Neighbor list info ...
  update every 8 steps, delay 0 steps, check yes
  max neighbors/atom: 2000, page size: 100000
  master list distance cutoff = 11
  ghost atom cutoff = 11
  binsize = 5.5, bins = 11 11 11
  1 neighbor lists, perpetual/occasional/extra = 1 0 0
  (1) pair table, perpetual
      attributes: half, newton on
      pair build: half/bin/atomonly/newton
      stencil: half/bin/3d
      bin: standard
Per MPI rank memory allocation (min/avg/max) = 3.309 | 3.535 | 3.696 Mbytes
   Step          Temp          E_pair         E_mol          TotEng         Press     
         0   100           -30477.63       0             -30374.235      337.26978    
       500   100.41382     -30373.969      0             -30270.146      4856.1705    
      1000   96.783616     -30373.872      0             -30273.803      4858.7715    
      1500   102.94687     -30377.116      0             -30270.674      4709.19      
      2000   95.31769      -30375.423      0             -30276.869      4780.8779    
      2500   102.70623     -30373.3        0             -30267.107      4884.5443    
      3000   101.61411     -30374.637      0             -30269.573      4810.9234    
      3500   101.75272     -30373.828      0             -30268.621      4872.7832    
      4000   101.92297     -30375.298      0             -30269.915      4736.5643    
      4500   95.477248     -30371.255      0             -30272.536      4977.4564    
      5000   101.48458     -30375.333      0             -30270.403      4776.9939    
      5500   100.83908     -30374.003      0             -30269.74       4797.7037    
      6000   101.28332     -30374.964      0             -30270.242      4774.986     
      6500   98.499819     -30375.392      0             -30273.548      4766.8348    
      7000   100.11987     -30375.73       0             -30272.211      4811.6467    
      7500   99.280231     -30375.347      0             -30272.696      4784.7153    
      8000   101.01211     -30374.772      0             -30270.33       4808.7499    
      8500   99.03955      -30373.875      0             -30271.473      4827.2516    
      9000   101.63946     -30374.848      0             -30269.757      4767.7001    
      9500   99.574673     -30375.577      0             -30272.621      4777.9491    
     10000   99.318819     -30374.777      0             -30272.086      4793.8202    
     10500   101.46082     -30376.094      0             -30271.188      4747.0224    
     11000   99.867544     -30375.295      0             -30272.036      4785.3214    
     11500   100.21126     -30376.748      0             -30273.135      4707.2978    
     12000   98.71774      -30375.591      0             -30273.522      4779.6837    
     12500   101.1487      -30375.022      0             -30270.44       4802.1382    
     13000   99.758539     -30374.981      0             -30271.835      4810.3227    
     13500   98.290178     -30376.939      0             -30275.312      4698.2324    
     14000   99.864545     -30374.158      0             -30270.903      4833.4295    
     14500   99.14726      -30375.514      0             -30273.001      4792.3077    
     15000   100.3937      -30374.876      0             -30271.073      4850.3603    
     15500   99.856556     -30375.419      0             -30272.172      4785.3201    
     16000   102.26846     -30374.16       0             -30268.419      4873.2999    
     16500   99.510427     -30374.927      0             -30272.038      4776.5025    
     17000   101.35948     -30374.003      0             -30269.202      4887.9418    
     17500   98.448948     -30373.983      0             -30272.191      4850.8541    
     18000   100.05242     -30375.627      0             -30272.177      4770.7935    
     18500   101.15917     -30376.412      0             -30271.818      4790.8511    
     19000   99.447052     -30375.693      0             -30272.869      4789.7355    
     19500   99.929622     -30375.834      0             -30272.512      4819.0447    
     20000   101.20278     -30374.348      0             -30269.709      4824.0647    
     20500   99.204807     -30375.192      0             -30272.619      4800.3812    
     21000   100.42142     -30373.925      0             -30270.094      4881.3156    
     21500   100.30188     -30374.209      0             -30270.501      4825.972     
     22000   99.265081     -30373.704      0             -30271.069      4855.3554    
     22500   99.516023     -30375.588      0             -30272.693      4750.0141    
     23000   100.23583     -30376.322      0             -30272.683      4752.1101    
     23500   100.18345     -30375.617      0             -30272.032      4736.2903    
     24000   97.700422     -30375.745      0             -30274.728      4725.0871    
     24500   101.03079     -30374.699      0             -30270.238      4845.3751    
     25000   101.80205     -30373.578      0             -30268.32       4857.1606    
     25500   100.7812      -30374.402      0             -30270.199      4813.3537    
     26000   99.050973     -30376.136      0             -30273.722      4739.4073    
     26500   99.17884      -30374.465      0             -30271.919      4810.5508    
     27000   99.561927     -30373.704      0             -30270.762      4809.4712    
     27500   98.89103      -30375.573      0             -30273.325      4763.4257    
     28000   101.3918      -30374.02       0             -30269.186      4818.5004    
     28500   100.02141     -30374.611      0             -30271.194      4850.7717    
     29000   99.90814      -30374.462      0             -30271.162      4855.2765    
     29500   100.43851     -30375.519      0             -30271.671      4750.7234    
     30000   99.221893     -30378.228      0             -30275.638      4707.4123    
     30500   99.033465     -30374.493      0             -30272.097      4768.2052    
     31000   100.71757     -30374.192      0             -30270.055      4867.7597    
     31500   100.26693     -30374.127      0             -30270.455      4837.2445    
     32000   99.359729     -30376.015      0             -30273.282      4709.4994    
     32500   101.05024     -30374.317      0             -30269.836      4827.2956    
     33000   100.72584     -30373.353      0             -30269.207      4893.4892    
     33500   100.65526     -30375.573      0             -30271.5        4766.4083    
     34000   99.203625     -30375.256      0             -30272.684      4791.9555    
     34500   99.23533      -30375.483      0             -30272.878      4793.4367    
     35000   99.262991     -30374.022      0             -30271.389      4845.2182    
     35500   100.24821     -30375.625      0             -30271.973      4798.2778    
     36000   100.58836     -30375.136      0             -30271.132      4829.7511    
     36500   100.05749     -30375.794      0             -30272.339      4803.9893    
     37000   100.36078     -30373.416      0             -30269.647      4898.0115    
     37500   99.447911     -30375.115      0             -30272.291      4805.7988    
     38000   100.34647     -30375.079      0             -30271.326      4791.5943    
     38500   99.003513     -30373.946      0             -30271.581      4814.244     
     39000   98.44147      -30375.339      0             -30273.555      4805.8888    
     39500   101.08236     -30373.875      0             -30269.361      4833.5215    
     40000   99.349615     -30374.144      0             -30271.421      4844.5816    
     40500   99.868057     -30376.415      0             -30273.156      4781.401     
     41000   99.90734      -30374.08       0             -30270.78       4843.1521    
     41500   100.32297     -30374.373      0             -30270.643      4862.0426    
     42000   100.25018     -30373.953      0             -30270.299      4870.3814    
     42500   99.860519     -30374.56       0             -30271.309      4829.1429    
     43000   100.45238     -30374.016      0             -30270.153      4872.9336    
     43500   98.17067      -30375.323      0             -30273.819      4770.2973    
     44000   100.07213     -30373.954      0             -30270.484      4867.2736    
     44500   100.4078      -30375.105      0             -30271.288      4805.266     
     45000   99.376264     -30374.704      0             -30271.954      4791.5885    
     45500   99.725528     -30373.462      0             -30270.351      4851.9045    
     46000   98.956945     -30375.671      0             -30273.354      4749.4186    
     46500   100.84708     -30374.965      0             -30270.694      4810.8382    
     47000   100.39715     -30376.168      0             -30272.363      4754.9376    
     47500   100.05056     -30374.557      0             -30271.11       4844.6362    
     48000   101.19835     -30375.894      0             -30271.26       4823.0344    
     48500   99.703021     -30375.178      0             -30272.09       4826.7182    
     49000   99.961617     -30374.47       0             -30271.114      4854.8725    
     49500   100.96634     -30375.885      0             -30271.491      4803.4542    
     50000   100.70534     -30374.515      0             -30270.39       4857.8595    
     50500   100.76661     -30376.488      0             -30272.3        4784.5965    
     51000   100.47497     -30375.074      0             -30271.188      4831.0599    
     51500   99.288514     -30375.107      0             -30272.448      4785.1748    
     52000   100.30119     -30375.578      0             -30271.872      4758.1999    
     52500   99.966759     -30374.902      0             -30271.541      4820.5174    
     53000   100.35285     -30375.299      0             -30271.539      4832.7232    
     53500   99.807622     -30373.552      0             -30270.356      4844.5832    
     54000   100.3394      -30371.565      0             -30267.819      4959.956     
     54500   99.668183     -30375.668      0             -30272.616      4794.9275    
     55000   100.5842      -30373.912      0             -30269.913      4842.574     
     55500   99.072134     -30375.142      0             -30272.706      4790.3077    
     56000   101.20744     -30374.227      0             -30269.583      4834.6661    
     56500   99.000815     -30374.002      0             -30271.64       4893.0735    
     57000   100.66919     -30373.801      0             -30269.714      4883.3936    
     57500   99.561342     -30377.302      0             -30274.36       4738.0895    
     58000   100.58046     -30373.773      0             -30269.778      4889.3598    
     58500   100.07682     -30374.379      0             -30270.904      4839.3868    
     59000   99.700302     -30375.203      0             -30272.118      4805.4545    
     59500   98.561799     -30374.053      0             -30272.145      4891.1692    
     60000   100.70102     -30376.411      0             -30272.291      4768.826     
     60500   100.03144     -30375.569      0             -30272.142      4758.2238    
     61000   99.959556     -30374.421      0             -30271.068      4850.8626    
     61500   100.66299     -30374.71       0             -30270.629      4807.6104    
     62000   100.30456     -30375.302      0             -30271.592      4794.727     
     62500   99.680076     -30373.998      0             -30270.934      4811.8632    
     63000   100.19698     -30375.138      0             -30271.539      4814.8254    
     63500   99.442898     -30374.333      0             -30271.514      4864.7289    
     64000   100.45076     -30374.286      0             -30270.425      4844.903     
     64500   97.573559     -30373.931      0             -30273.044      4846.9341    
     65000   100.62335     -30375.775      0             -30271.735      4786.8954    
     65500   100.23162     -30374.008      0             -30270.373      4867.5214    
     66000   100.56256     -30374.789      0             -30270.812      4792.5005    
     66500   99.273598     -30373.597      0             -30270.953      4892.8308    
     67000   100.25885     -30374.913      0             -30271.25       4812.3869    
     67500   98.815583     -30374.808      0             -30272.637      4802.1972    
     68000   100.26834     -30373.212      0             -30269.539      4901.8708    
     68500   99.127935     -30376.1        0             -30273.606      4707.9453    
     69000   100.61538     -30374.958      0             -30270.927      4811.1923    
     69500   99.748923     -30376.215      0             -30273.079      4783.0955    
     70000   99.756482     -30374.137      0             -30270.994      4881.613     
     70500   99.672425     -30376.491      0             -30273.435      4770.5279    
     71000   101.57581     -30374.94       0             -30269.916      4817.2616    
     71500   98.638099     -30375.426      0             -30273.439      4814.7706    
     72000   99.934097     -30375.547      0             -30272.22       4810.5083    
     72500   98.979067     -30376.057      0             -30273.718      4768.8004    
     73000   98.866879     -30374.511      0             -30272.288      4842.2177    
     73500   100.22892     -30373.112      0             -30269.48       4889.5834    
     74000   100.65214     -30375.892      0             -30271.823      4783.8874    
     74500   99.973454     -30374.977      0             -30271.609      4850.7032    
     75000   100.756       -30375.645      0             -30271.468      4813.2342    
     75500   100.09995     -30375.002      0             -30271.503      4794.4926    
     76000   100.61127     -30375.132      0             -30271.105      4836.4188    
     76500   101.67698     -30376.356      0             -30271.227      4744.0311    
     77000   100.07365     -30374.989      0             -30271.518      4834.9197    
     77500   99.680532     -30376.64       0             -30273.575      4732.99      
     78000   98.511804     -30374.931      0             -30273.075      4790.497     
     78500   101.68279     -30374.997      0             -30269.862      4811.3602    
     79000   99.119368     -30374.774      0             -30272.29       4826.4696    
     79500   99.74441      -30375.853      0             -30272.722      4741.762     
     80000   99.621502     -30374.057      0             -30271.053      4861.6778    
     80500   98.644408     -30374.648      0             -30272.654      4837.7406    
     81000   99.382411     -30375.55       0             -30272.793      4750.376     
     81500   101.52965     -30374.486      0             -30269.509      4844.9613    
     82000   100.29745     -30373.968      0             -30270.265      4865.4937    
     82500   98.809347     -30375.171      0             -30273.007      4779.4199    
     83000   100.56179     -30375.296      0             -30271.32       4825.0357    
     83500   99.960324     -30373.601      0             -30270.247      4873.9967    
     84000   98.402944     -30374.427      0             -30272.683      4826.0126    
     84500   100.57284     -30375.003      0             -30271.016      4801.0276    
     85000   99.723697     -30375.32       0             -30272.211      4831.9193    
     85500   100.45318     -30375.781      0             -30271.917      4805.8555    
     86000   101.20952     -30375.622      0             -30270.976      4808.0124    
     86500   98.643814     -30376.014      0             -30274.021      4761.0357    
     87000   101.18748     -30375.309      0             -30270.686      4798.6991    
     87500   100.22609     -30375.578      0             -30271.949      4776.4306    
     88000   100.16402     -30372.606      0             -30269.041      4930.6362    
     88500   101.07621     -30376.186      0             -30271.678      4737.0971    
     89000   101.00985     -30375.262      0             -30270.823      4821.324     
     89500   99.827163     -30375.173      0             -30271.956      4823.2163    
     90000   100.77315     -30373.563      0             -30269.368      4889.0697    
     90500   100.68613     -30373.795      0             -30269.69       4880.6823    
     91000   101.00271     -30375.961      0             -30271.529      4785.9231    
     91500   97.708852     -30375.34       0             -30274.313      4758.5409    
     92000   100.52589     -30374.551      0             -30270.612      4840.0134    
     92500   101.43958     -30374.502      0             -30269.619      4860.682     
     93000   100.05102     -30374.986      0             -30271.539      4829.6824    
     93500   99.29721      -30373.624      0             -30270.955      4884.8051    
     94000   101.43422     -30375.499      0             -30270.621      4820.4293    
     94500   99.056754     -30375.621      0             -30273.201      4781.8877    
     95000   99.257469     -30375.18       0             -30272.553      4802.5207    
     95500   101.23798     -30375.678      0             -30271.003      4806.3579    
     96000   100.50426     -30375.529      0             -30271.613      4825.8531    
     96500   99.352851     -30374.146      0             -30271.42       4828.5222    
     97000   101.00982     -30375.238      0             -30270.798      4795.6007    
     97500   99.887895     -30376.356      0             -30273.077      4717.866     
     98000   98.913869     -30376.014      0             -30273.742      4764.8842    
     98500   100.77496     -30374.755      0             -30270.558      4792.6964    
     99000   99.984783     -30374.81       0             -30271.431      4795.1922    
     99500   100.45581     -30374.616      0             -30270.749      4824.006     
    100000   101.75334     -30375.326      0             -30270.118      4810.7483    
    100500   99.844543     -30375.809      0             -30272.574      4791.4023    
    101000   98.300846     -30375.343      0             -30273.705      4773.2982    
    101500   98.75694      -30373.106      0             -30270.996      4924.4854    
    102000   99.872492     -30375.107      0             -30271.844      4816.4508    
    102500   100.21932     -30375.418      0             -30271.796      4779.8304    
    103000   100.58736     -30374.45       0             -30270.447      4829.2763    
    103500   100.24002     -30375.05       0             -30271.407      4829.4127    
    104000   100.05538     -30374.009      0             -30270.557      4846.0468    
    104500   98.771647     -30375.533      0             -30273.408      4770.0481    
    105000   99.917993     -30372.751      0             -30269.441      4874.98      
    105500   100.00763     -30374.74       0             -30271.337      4832.2902    
    106000   99.817137     -30374.381      0             -30271.174      4810.6714    
    106500   101.03829     -30374.801      0             -30270.332      4845.8466    
    107000   98.569157     -30376.152      0             -30274.236      4705.9777    
    107500   100.72032     -30375.006      0             -30270.866      4805.7877    
    108000   99.963126     -30375.28       0             -30271.923      4788.211     
    108500   99.798532     -30376.38       0             -30273.193      4762.2129    
    109000   100.46719     -30376.087      0             -30272.209      4734.2707    
    109500   100.29336     -30374.695      0             -30270.996      4761.7375    
    110000   100.99658     -30374.752      0             -30270.326      4813.1801    
    110500   98.71143      -30375.683      0             -30273.62       4762.3146    
    111000   99.398615     -30374.564      0             -30271.791      4834.9586    
    111500   98.865301     -30374.218      0             -30271.996      4875.244     
    112000   99.185353     -30375.104      0             -30272.551      4838.5712    
    112500   99.90452      -30372.779      0             -30269.483      4922.4989    
    113000   98.315052     -30374.597      0             -30272.944      4777.081     
    113500   101.34926     -30375.885      0             -30271.095      4781.0698    
    114000   99.693406     -30374.934      0             -30271.856      4836.998     
    114500   99.309905     -30375.287      0             -30272.605      4787.9745    
    115000   100.9103      -30374.684      0             -30270.347      4830.14      
    115500   101.53943     -30373.695      0             -30268.709      4873.4394    
    116000   100.19748     -30373.636      0             -30270.037      4841.5553    
    116500   99.849686     -30372.534      0             -30269.294      4889.5912    
    117000   99.745399     -30373.979      0             -30270.847      4824.7353    
    117500   100.24276     -30374.892      0             -30271.246      4824.5048    
    118000   99.249009     -30372.638      0             -30270.019      4903.0528    
    118500   99.257904     -30375.737      0             -30273.109      4725.9813    
    119000   101.8913      -30375.467      0             -30270.117      4748.3033    
    119500   100.25099     -30375.234      0             -30271.579      4787.9625    
    120000   99.649612     -30375.948      0             -30272.915      4778.4379    
    120500   100.84634     -30373.554      0             -30269.284      4885.8431    
    121000   100.39584     -30375.892      0             -30272.088      4780.1259    
    121500   99.113647     -30375.748      0             -30273.269      4801.0505    
    122000   101.49021     -30375.959      0             -30271.023      4752.5048    
    122500   100.38874     -30374.932      0             -30271.135      4801.7766    
    123000   100.16115     -30375.626      0             -30272.064      4777.3548    
    123500   99.496748     -30376.691      0             -30273.816      4761.4511    
    124000   100.06825     -30373.905      0             -30270.439      4857.735     
    124500   101.02331     -30374.715      0             -30270.262      4836.4563    
    125000   99.152166     -30374.039      0             -30271.521      4857.2094    
    125500   100.56779     -30374.41       0             -30270.428      4879.8977    
    126000   99.919957     -30374.975      0             -30271.662      4789.2264    
    126500   100.94289     -30375.003      0             -30270.633      4834.1628    
    127000   100.20834     -30377.58       0             -30273.969      4702.3384    
    127500   99.344189     -30374.212      0             -30271.495      4844.7455    
    128000   102.01956     -30374.067      0             -30268.584      4894.2418    
    128500   100.18722     -30375.581      0             -30271.993      4805.8822    
    129000   99.123093     -30373.212      0             -30270.724      4925.859     
    129500   101.52316     -30375.301      0             -30270.33       4849.9884    
    130000   99.69589      -30373.509      0             -30270.428      4915.6048    
    130500   99.775458     -30376.565      0             -30273.402      4766.9574    
    131000   100.12015     -30376.765      0             -30273.246      4741.0823    
    131500   100.20271     -30375.205      0             -30271.601      4841.952     
    132000   98.776606     -30375.852      0             -30273.722      4765.4211    
    132500   99.822447     -30374.284      0             -30271.073      4874.4577    
    133000   99.18019      -30375.671      0             -30273.123      4799.2665    
    133500   98.665091     -30376.008      0             -30273.993      4737.0717    
    134000   101.10895     -30375.229      0             -30270.687      4858.2567    
    134500   99.597708     -30374.004      0             -30271.025      4824.4344    
    135000   100.50326     -30373.234      0             -30269.319      4909.5002    
    135500   100.03057     -30376.38       0             -30272.953      4757.9433    
    136000   99.512869     -30376.043      0             -30273.151      4785.8874    
    136500   100.95837     -30375.835      0             -30271.449      4812.6055    
    137000   100.09967     -30375.214      0             -30271.716      4779.4678    
    137500   99.490564     -30374.265      0             -30271.396      4854.952     
    138000   101.03631     -30376.064      0             -30271.597      4810.3498    
    138500   100.49184     -30374.389      0             -30270.485      4858.8213    
    139000   98.505224     -30374.788      0             -30272.938      4826.6224    
    139500   98.701767     -30375.54       0             -30273.487      4786.2958    
    140000   100.25436     -30373.56       0             -30269.902      4913.9248    
    140500   98.424256     -30373.788      0             -30272.022      4893.8757    
    141000   100.29568     -30374.54       0             -30270.839      4807.9332    
    141500   99.926087     -30375.853      0             -30272.535      4747.8671    
    142000   98.624102     -30375.098      0             -30273.126      4774.0655    
    142500   100.52966     -30375.705      0             -30271.763      4798.6403    
    143000   101.44937     -30374.8        0             -30269.906      4819.344     
    143500   101.03341     -30375.043      0             -30270.579      4842.3976    
    144000   100.91594     -30375.347      0             -30271.004      4796.9718    
    144500   98.468078     -30373.476      0             -30271.665      4859.5605    
    145000   98.05365      -30375.748      0             -30274.365      4758.7269    
    145500   99.955415     -30374.673      0             -30271.324      4812.5372    
    146000   101.07078     -30376.71       0             -30272.208      4703.9213    
    146500   99.609854     -30373.826      0             -30270.834      4823.1288    
    147000   98.922556     -30375.548      0             -30273.267      4738.7432    
    147500   99.969459     -30374.448      0             -30271.085      4846.0017    
    148000   101.10452     -30375.018      0             -30270.481      4796.7247    
    148500   100.60079     -30373.677      0             -30269.66       4848.8587    
    149000   99.769868     -30374.31       0             -30271.153      4845.9059    
    149500   99.237207     -30375.287      0             -30272.681      4784.7651    
    150000   98.983341     -30375.365      0             -30273.021      4779.2594    
    150500   98.373035     -30374.336      0             -30272.623      4888.7224    
    151000   100.32977     -30374.284      0             -30270.547      4861.0845    
    151500   100.54418     -30375.766      0             -30271.808      4852.0023    
    152000   100.2494      -30374.541      0             -30270.888      4801.7751    
    152500   98.456093     -30374.628      0             -30272.829      4811.85      
    153000   99.282262     -30373.35       0             -30270.697      4873.9436    
    153500   98.888784     -30374.321      0             -30272.075      4875.6558    
    154000   100.78401     -30373.909      0             -30269.703      4925.5518    
    154500   99.03665      -30374.329      0             -30271.93       4841.2888    
    155000   100.04057     -30375.267      0             -30271.83       4781.64      
    155500   101.31561     -30374.95       0             -30270.194      4814.4468    
    156000   98.308734     -30374.752      0             -30273.106      4782.029     
    156500   100.18785     -30375.333      0             -30271.744      4803.3314    
    157000   100.65961     -30373.562      0             -30269.485      4855.8715    
    157500   98.817945     -30374.235      0             -30272.061      4832.9472    
    158000   98.80034      -30375.498      0             -30273.343      4782.8137    
    158500   101.60712     -30373.376      0             -30268.319      4894.1214    
    159000   98.813897     -30373.918      0             -30271.749      4846.3524    
    159500   101.70772     -30375.022      0             -30269.861      4830.3722    
    160000   101.61851     -30372.915      0             -30267.846      4929.703     
    160500   100.03662     -30377.146      0             -30273.713      4664.1961    
    161000   98.481826     -30373.65       0             -30271.824      4866.2153    
    161500   99.448229     -30376.229      0             -30273.404      4773.7922    
    162000   101.18153     -30375.041      0             -30270.424      4849.4402    
    162500   99.847614     -30374.793      0             -30271.555      4803.6528    
    163000   99.98219      -30375.539      0             -30272.162      4767.7354    
    163500   98.90597      -30372.839      0             -30270.575      4902.5151    
    164000   99.362367     -30375.358      0             -30272.622      4769.6968    
    164500   99.913235     -30375.545      0             -30272.239      4754.2495    
    165000   98.898621     -30375.291      0             -30273.035      4794.3875    
    165500   98.784312     -30373.218      0             -30271.079      4850.3669    
    166000   99.577153     -30375.218      0             -30272.26       4773.2112    
    166500   101.05111     -30374.298      0             -30269.816      4817.5776    
    167000   100.23888     -30374.411      0             -30270.769      4829.7978    
    167500   99.665889     -30372.404      0             -30269.354      4945.3939    
    168000   99.127026     -30374.654      0             -30272.162      4766.3407    
    168500   99.562778     -30374.537      0             -30271.593      4827.5087    
    169000   101.74266     -30374.111      0             -30268.914      4856.079     
    169500   101.94804     -30374.654      0             -30269.245      4877.9545    
    170000   100.07105     -30375.203      0             -30271.735      4838.025     
    170500   99.518275     -30374.908      0             -30272.011      4821.5963    
    171000   99.79503      -30374.738      0             -30271.555      4835.4022    
    171500   100.11074     -30375.768      0             -30272.258      4765.8376    
    172000   99.745485     -30374.09       0             -30270.958      4893.2644    
    172500   99.769485     -30372.883      0             -30269.726      4885.0944    
    173000   100.46156     -30374.569      0             -30270.697      4855.8151    
    173500   100.35628     -30376.053      0             -30272.289      4794.5008    
    174000   99.232625     -30373.992      0             -30271.39       4883.9726    
    174500   99.206267     -30374.109      0             -30271.534      4902.4949    
    175000   99.091527     -30374.682      0             -30272.226      4816.7997    
    175500   101.54819     -30374.221      0             -30269.225      4834.851     
    176000   98.711019     -30374.657      0             -30272.595      4828.8156    
    176500   101.11998     -30374.733      0             -30270.18       4841.3924    
    177000   97.830892     -30373.82       0             -30272.668      4845.5072    
    177500   100.83121     -30372.777      0             -30268.523      4844.7242    
    178000   100.02599     -30376.911      0             -30273.489      4672.272     
    178500   100.85574     -30374.537      0             -30270.257      4799.1693    
    179000   100.69167     -30373.72       0             -30269.61       4879.9411    
    179500   99.444573     -30377.038      0             -30274.217      4720.4141    
    180000   99.227107     -30374.134      0             -30271.538      4847.406     
    180500   100.22758     -30374.843      0             -30271.212      4836.5828    
    181000   100.33753     -30375.891      0             -30272.147      4735.4953    
    181500   101.67192     -30374.406      0             -30269.282      4864.623     
    182000   99.646597     -30374.222      0             -30271.192      4851.7244    
    182500   100.13216     -30375.634      0             -30272.103      4747.0257    
    183000   98.552668     -30373.606      0             -30271.707      4859.6046    
    183500   99.954898     -30374.27       0             -30270.922      4830.0987    
    184000   99.944414     -30374.986      0             -30271.648      4804.9825    
    184500   101.39649     -30376.434      0             -30271.595      4806.1631    
    185000   98.906932     -30373.373      0             -30271.108      4877.0142    
    185500   99.621093     -30374.803      0             -30271.8        4838.2182    
    186000   99.519851     -30374.209      0             -30271.31       4833.1133    
    186500   100.52125     -30375.04       0             -30271.105      4815.9272    
    187000   100.44916     -30375.64       0             -30271.78       4737.8587    
    187500   98.529969     -30373.142      0             -30271.267      4892.35      
    188000   99.978516     -30375.156      0             -30271.783      4793.0266    
    188500   100.7807      -30375.062      0             -30270.86       4790.6408    
    189000   100.31656     -30374.267      0             -30270.545      4783.4644    
    189500   98.750334     -30374.578      0             -30272.474      4797.2695    
    190000   99.545422     -30375.687      0             -30272.762      4798.4068    
    190500   98.918674     -30374.185      0             -30271.908      4800.8526    
    191000   99.831947     -30374.177      0             -30270.956      4861.7095    
    191500   102.34286     -30375.65       0             -30269.833      4773.8506    
    192000   99.806347     -30375.653      0             -30272.458      4787.27      
    192500   99.793979     -30373.585      0             -30270.403      4845.9993    
    193000   99.843238     -30374.452      0             -30271.218      4817.6167    
    193500   101.23902     -30375.914      0             -30271.238      4782.2389    
    194000   98.760943     -30374.817      0             -30272.703      4796.3841    
    194500   99.591912     -30374.366      0             -30271.393      4839.18      
    195000   99.096241     -30374.808      0             -30272.347      4813.3262    
    195500   99.946563     -30374.153      0             -30270.813      4858.1196    
    196000   98.67129      -30374.261      0             -30272.24       4813.4886    
    196500   99.72214      -30374.942      0             -30271.834      4833.8772    
    197000   100.70663     -30376.318      0             -30272.193      4753.1862    
    197500   99.222389     -30372.795      0             -30270.204      4858.0516    
    198000   100.22379     -30374.976      0             -30271.349      4837.1708    
    198500   99.758809     -30374.91       0             -30271.764      4796.4245    
    199000   99.819467     -30375.245      0             -30272.036      4801.2413    
    199500   100.08568     -30373.794      0             -30270.31       4836.4929    
    200000   99.975578     -30375.728      0             -30272.358      4799.1377    
    200500   99.881452     -30375.404      0             -30272.131      4804.9552    
    201000   99.813825     -30375.527      0             -30272.324      4793.5301    
    201500   100.36278     -30375.05       0             -30271.28       4761.173     
    202000   99.37955      -30374.935      0             -30272.181      4843.1778    
    202500   99.068155     -30375.365      0             -30272.933      4782.0782    
    203000   101.52347     -30375.526      0             -30270.556      4768.1923    
    203500   99.106484     -30374.578      0             -30272.106      4827.7286    
    204000   100.23394     -30375.533      0             -30271.896      4769.3103    
    204500   99.745239     -30375.059      0             -30271.928      4749.199     
    205000   100.87184     -30374.612      0             -30270.315      4789.3243    
    205500   101.22383     -30375.96       0             -30271.299      4782.1595    
    206000   99.447578     -30372.769      0             -30269.945      4862.3672    
    206500   100.67749     -30375.806      0             -30271.71       4759.6301    
    207000   100.63996     -30375.235      0             -30271.179      4825.9429    
    207500   101.13441     -30373.627      0             -30269.059      4861.1159    
    208000   99.254139     -30375.515      0             -30272.891      4792.2244    
    208500   101.77086     -30376.112      0             -30270.886      4781.1569    
    209000   100.79391     -30374.662      0             -30270.446      4845.1535    
    209500   99.750738     -30373.442      0             -30270.305      4857.3079    
    210000   98.432606     -30373.929      0             -30272.154      4830.0225    
    210500   100.23536     -30375.405      0             -30271.766      4781.5681    
    211000   99.716606     -30374.371      0             -30271.268      4828.9499    
    211500   100.52309     -30374.716      0             -30270.78       4824.9783    
    212000   100.01929     -30374.42       0             -30271.005      4823.016     
    212500   101.70261     -30375.176      0             -30270.02       4837.4134    
    213000   101.10875     -30372.765      0             -30268.224      4843.8919    
    213500   99.169572     -30373.769      0             -30271.232      4893.2422    
    214000   99.361886     -30376.216      0             -30273.48       4739.1563    
    214500   98.869206     -30374.045      0             -30271.819      4834.1244    
    215000   99.61247      -30375.722      0             -30272.728      4752.3496    
    215500   97.870796     -30373.712      0             -30272.518      4886.1248    
    216000   101.33643     -30375.588      0             -30270.811      4797.409     
    216500   99.762601     -30375.879      0             -30272.73       4761.668     
    217000   100.16138     -30373.263      0             -30269.701      4883.0601    
    217500   99.65957      -30376.08       0             -30273.037      4742.983     
    218000   100.58833     -30374.853      0             -30270.85       4840.7442    
    218500   99.668589     -30375.455      0             -30272.403      4746.9576    
    219000   100.84935     -30375.054      0             -30270.781      4861.8302    
    219500   99.773789     -30374.065      0             -30270.904      4849.2617    
    220000   101.2551      -30375.304      0             -30270.612      4802.213     
    220500   98.142551     -30375.657      0             -30274.182      4776.2152    
    221000   101.58051     -30374.191      0             -30269.162      4860.817     
    221500   101.0465      -30375.34       0             -30270.863      4776.7477    
    222000   98.95151      -30374.217      0             -30271.906      4828.0434    
    222500   99.910781     -30375.93       0             -30272.628      4784.276     
    223000   100.86999     -30373.443      0             -30269.148      4919.7548    
    223500   99.308249     -30374.742      0             -30272.062      4817.2121    
    224000   99.304597     -30375.434      0             -30272.758      4813.277     
    224500   98.721112     -30374.448      0             -30272.375      4841.5873    
    225000   100.81748     -30374.785      0             -30270.545      4841.71      
    225500   101.13238     -30375.323      0             -30270.757      4791.8737    
    226000   98.452678     -30374.594      0             -30272.798      4865.9311    
    226500   101.65725     -30374.931      0             -30269.823      4828.443     
    227000   100.45489     -30372.792      0             -30268.927      4879.3948    
    227500   99.098094     -30376.7        0             -30274.237      4739.4206    
    228000   100.81184     -30375.454      0             -30271.219      4804.3577    
    228500   99.35486      -30373.929      0             -30271.2        4896.6788    
    229000   99.054625     -30373.357      0             -30270.939      4838.2702    
    229500   101.35354     -30374.213      0             -30269.418      4855.7954    
    230000   99.218569     -30374.17       0             -30271.582      4858.6085    
    230500   101.11868     -30376.494      0             -30271.942      4735.7292    
    231000   99.766825     -30375.001      0             -30271.847      4746.4719    
    231500   101.00998     -30375.063      0             -30270.624      4784.7412    
    232000   100.42305     -30375.063      0             -30271.23       4785.1829    
    232500   99.338116     -30375.316      0             -30272.605      4798.7249    
    233000   99.330342     -30374.508      0             -30271.805      4827.3814    
    233500   98.800384     -30375.064      0             -30272.909      4779.6757    
    234000   100.23365     -30374.269      0             -30270.632      4856.5734    
    234500   100.35569     -30376.452      0             -30272.689      4757.1821    
    235000   98.655996     -30377.44       0             -30275.435      4668.7716    
    235500   98.769057     -30374.433      0             -30272.311      4793.5776    
    236000   101.07332     -30376.582      0             -30272.077      4738.8868    
    236500   101.2434      -30375.523      0             -30270.842      4787.7898    
    237000   100.89151     -30374.559      0             -30270.242      4763.3475    
    237500   99.384282     -30375.09       0             -30272.331      4803.0548    
    238000   99.859856     -30373.452      0             -30270.201      4833.3838    
    238500   100.31185     -30374.405      0             -30270.687      4863.104     
    239000   100.36294     -30374.01       0             -30270.24       4857.6589    
    239500   100.31614     -30375.51       0             -30271.787      4776.6247    
    240000   98.913017     -30373.683      0             -30271.412      4910.0772    
    240500   100.05867     -30375.264      0             -30271.808      4798.8441    
    241000   99.212341     -30373.89       0             -30271.309      4856.3876    
    241500   99.006723     -30376.464      0             -30274.096      4765.7945    
    242000   99.233317     -30374.706      0             -30272.104      4763.3432    
    242500   99.97034      -30374.489      0             -30271.124      4843.2908    
    243000   99.023323     -30375.722      0             -30273.337      4776.1867    
    243500   100.55229     -30374.492      0             -30270.526      4838.6405    
    244000   101.52032     -30374.415      0             -30269.448      4831.4187    
    244500   98.775649     -30374.182      0             -30272.053      4837.2267    
    245000   100.55436     -30374.475      0             -30270.506      4822.8355    
    245500   100.95296     -30375.752      0             -30271.371      4728.5151    
    246000   99.313365     -30375.067      0             -30272.381      4815.8773    
    246500   103.16671     -30375.777      0             -30269.108      4839.6426    
    247000   100.15329     -30373.43       0             -30269.877      4889.8544    
    247500   100.34176     -30375.985      0             -30272.237      4759.4643    
    248000   100.41989     -30373.97       0             -30270.141      4818.9809    
    248500   99.765539     -30374.97       0             -30271.817      4832.7222    
    249000   100.73391     -30376.041      0             -30271.887      4786.3615    
    249500   100.79866     -30374.804      0             -30270.583      4818.0622    
    250000   100.17682     -30376.565      0             -30272.987      4737.9007    
    250500   100.96721     -30376.422      0             -30272.026      4720.6104    
    251000   97.713267     -30373.852      0             -30272.821      4831.7746    
    251500   100.58239     -30375.253      0             -30271.256      4820.7737    
    252000   99.013892     -30373.756      0             -30271.38       4844.8416    
    252500   100.24937     -30373.555      0             -30269.902      4871.2447    
    253000   97.858749     -30374.023      0             -30272.842      4820.9241    
    253500   100.3961      -30374.632      0             -30270.827      4842.0973    
    254000   99.200575     -30374.571      0             -30272.002      4783.6435    
    254500   99.526127     -30373.882      0             -30270.976      4808.9743    
    255000   101.93376     -30373.905      0             -30268.511      4890.2261    
    255500   98.043381     -30375.159      0             -30273.787      4748.0936    
    256000   99.525803     -30374.311      0             -30271.407      4775.2184    
    256500   100.85814     -30375.464      0             -30271.182      4772.4376    
    257000   99.964587     -30375.735      0             -30272.377      4783.9765    
    257500   102.05652     -30374.611      0             -30269.089      4842.394     
    258000   99.454282     -30373.804      0             -30270.973      4811.4291    
    258500   100.41921     -30375.901      0             -30272.073      4793.219     
    259000   98.920986     -30373.514      0             -30271.235      4885.9259    
    259500   100.65263     -30374.43       0             -30270.36       4840.5923    
    260000   99.982721     -30376.247      0             -30272.869      4767.0138    
    260500   101.42967     -30373.677      0             -30268.804      4848.3019    
    261000   101.33333     -30375.607      0             -30270.833      4769.7697    
    261500   98.449087     -30373.782      0             -30271.991      4835.685     
    262000   99.664781     -30374.997      0             -30271.949      4805.0023    
    262500   98.342231     -30374.133      0             -30272.452      4842.6931    
    263000   101.24947     -30373.545      0             -30268.858      4884.2787    
    263500   99.711806     -30374.826      0             -30271.729      4826.5806    
    264000   98.605464     -30374.475      0             -30272.522      4861.7205    
    264500   102.06726     -30372.971      0             -30267.439      4924.3613    
    265000   101.87773     -30374.555      0             -30269.218      4837.9717    
    265500   99.863999     -30375.714      0             -30272.459      4772.6959    
    266000   99.463248     -30373.517      0             -30270.676      4888.5174    
    266500   100.78729     -30374.292      0             -30270.083      4859.6031    
    267000   97.654586     -30373.821      0             -30272.851      4870.1386    
    267500   100.91733     -30375.75       0             -30271.406      4803.9785    
    268000   100.94156     -30374.089      0             -30269.72       4847.3839    
    268500   98.705018     -30374.595      0             -30272.538      4841.5996    
    269000   98.464829     -30375.328      0             -30273.52       4761.4633    
    269500   98.891269     -30374.562      0             -30272.313      4830.7403    
    270000   101.24696     -30375.518      0             -30270.834      4805.636     
    270500   100.52123     -30375.176      0             -30271.242      4807.0649    
    271000   100.86376     -30375.079      0             -30270.79       4829.7647    
    271500   98.242296     -30374.272      0             -30272.695      4838.1432    
    272000   98.857325     -30374.903      0             -30272.689      4816.3238    
    272500   99.665303     -30373.659      0             -30270.61       4884.0244    
    273000   101.36668     -30374.003      0             -30269.195      4884.9824    
    273500   99.680522     -30375.37       0             -30272.305      4777.4347    
    274000   100.77024     -30375.58       0             -30271.388      4814.4478    
    274500   101.81323     -30374.261      0             -30268.991      4861.9409    
    275000   100.09568     -30375.036      0             -30271.542      4774.6317    
    275500   98.529038     -30373.673      0             -30271.799      4917.2124    
    276000   99.875021     -30374.704      0             -30271.438      4801.1489    
    276500   99.938465     -30373.594      0             -30270.263      4890.0318    
    277000   99.623934     -30374.877      0             -30271.87       4785.2667    
    277500   99.835384     -30375.338      0             -30272.113      4809.277     
    278000   100.75971     -30375.101      0             -30270.921      4826.1765    
    278500   101.14864     -30374.137      0             -30269.555      4845.9446    
    279000   100.45102     -30374.732      0             -30270.871      4792.1887    
    279500   101.91122     -30375.799      0             -30270.428      4797.6102    
    280000   99.826524     -30376.268      0             -30273.053      4787.6418    
    280500   97.991029     -30375.928      0             -30274.61       4751.2997    
    281000   100.76391     -30374.928      0             -30270.743      4828.6471    
    281500   100.79012     -30375.358      0             -30271.146      4791.0329    
    282000   99.425053     -30375.53       0             -30272.729      4758.532     
    282500   100.50347     -30374.232      0             -30270.317      4832.6472    
    283000   101.08657     -30375.591      0             -30271.072      4807.011     
    283500   100.29459     -30374.375      0             -30270.675      4841.0993    
    284000   100.11178     -30375.056      0             -30271.545      4796.3711    
    284500   100.22208     -30374.442      0             -30270.817      4824.6335    
    285000   100.98079     -30375.25       0             -30270.841      4841.1062    
    285500   99.010863     -30372.839      0             -30270.466      4897.7066    
    286000   98.487575     -30373.209      0             -30271.377      4872.9444    
    286500   100.57954     -30373.761      0             -30269.767      4870.5894    
    287000   99.310096     -30375.282      0             -30272.6        4784.2547    
    287500   100.72683     -30373.744      0             -30269.597      4869.6115    
    288000   100.25462     -30374.271      0             -30270.613      4815.2694    
    288500   98.990698     -30374.335      0             -30271.984      4801.2768    
    289000   99.230792     -30375.865      0             -30273.265      4763.9147    
    289500   101.17653     -30372.719      0             -30268.107      4929.9539    
    290000   98.544108     -30374.578      0             -30272.689      4815.2097    
    290500   100.22664     -30373.84       0             -30270.21       4869.646     
    291000   99.645223     -30374.51       0             -30271.482      4843.8491    
    291500   100.3879      -30375.135      0             -30271.339      4832.0035    
    292000   100.96111     -30372.332      0             -30267.943      4908.5711    
    292500   100.38414     -30375.189      0             -30271.396      4791.9411    
    293000   98.725402     -30374.798      0             -30272.721      4805.3671    
    293500   99.851146     -30374.137      0             -30270.896      4826.3983    
    294000   99.917451     -30374.743      0             -30271.433      4807.5364    
    294500   98.392476     -30373.933      0             -30272.2        4822.4303    
    295000   100.50768     -30375.114      0             -30271.194      4786.376     
    295500   100.91262     -30375.376      0             -30271.037      4793.5226    
    296000   99.750518     -30375.79       0             -30272.653      4763.9002    
    296500   100.20411     -30374.915      0             -30271.309      4818.0022    
    297000   99.737662     -30374.152      0             -30271.028      4788.0533    
    297500   98.907563     -30374.445      0             -30272.18       4838.6338    
    298000   101.02366     -30373.967      0             -30269.514      4842.0832    
    298500   102.02546     -30375.2        0             -30269.711      4762.3742    
    299000   101.47169     -30375.176      0             -30270.259      4750.2371    
    299500   99.714905     -30373.999      0             -30270.899      4838.4285    
    300000   100.16055     -30375.459      0             -30271.898      4819.5868    
    300500   100.98893     -30374.594      0             -30270.176      4841.6992    
    301000   99.641048     -30374.501      0             -30271.477      4862.6463    
    301500   100.53242     -30376.768      0             -30272.823      4722.6903    
    302000   99.892997     -30375.107      0             -30271.823      4771.0375    
    302500   100.5935      -30374.796      0             -30270.787      4788.8178    
    303000   100.30531     -30375.176      0             -30271.466      4819.6224    
    303500   100.15423     -30374.298      0             -30270.743      4880.0227    
    304000   100.99367     -30374.048      0             -30269.626      4854.4639    
    304500   98.902626     -30375.123      0             -30272.863      4805.3931    
    305000   100.31019     -30375.049      0             -30271.333      4819.205     
    305500   100.43832     -30373.825      0             -30269.977      4845.5363    
    306000   100.73044     -30376.037      0             -30271.887      4755.5955    
    306500   100.21866     -30374.899      0             -30271.278      4800.9326    
    307000   98.072689     -30374.409      0             -30273.007      4775.2165    
    307500   100.88596     -30375.006      0             -30270.695      4802.6168    
    308000   99.979504     -30373.769      0             -30270.395      4838.1956    
    308500   100.01029     -30375.776      0             -30272.37       4754.3316    
    309000   99.764683     -30374.95       0             -30271.798      4844.3282    
    309500   100.0548      -30374.618      0             -30271.166      4832.7952    
    310000   100.79292     -30375.415      0             -30271.2        4767.4149    
    310500   100.08922     -30374.87       0             -30271.382      4801.8686    
    311000   100.8603      -30375.066      0             -30270.782      4836.8285    
    311500   101.534       -30374.579      0             -30269.597      4818.1078    
    312000   100.04655     -30373.102      0             -30269.658      4899.1236    
    312500   100.43217     -30375.083      0             -30271.241      4828.934     
    313000   99.730783     -30375.335      0             -30272.218      4750.9367    
    313500   100.55342     -30375.651      0             -30271.684      4777.6488    
    314000   100.03749     -30374.118      0             -30270.684      4838.7091    
    314500   101.83861     -30375.851      0             -30270.555      4747.3579    
    315000   98.786921     -30374.58       0             -30272.439      4817.7619    
    315500   101.19335     -30375.686      0             -30271.057      4783.5817    
    316000   101.48933     -30373.634      0             -30268.699      4855.131     
    316500   99.473403     -30376.557      0             -30273.706      4737.5033    
    317000   99.519326     -30374.481      0             -30271.582      4806.4923    
    317500   100.92983     -30373.995      0             -30269.638      4809.4822    
    318000   100.36431     -30374.152      0             -30270.38       4813.3833    
    318500   99.051074     -30374.857      0             -30272.443      4796.8877    
    319000   100.60895     -30374.479      0             -30270.454      4810.647     
    319500   100.62393     -30373.912      0             -30269.871      4833.5023    
    320000   100.22459     -30374.821      0             -30271.194      4772.2248    
    320500   99.712381     -30376.14       0             -30273.042      4748.0018    
    321000   100.15196     -30373.396      0             -30269.844      4861.1107    
    321500   100.75105     -30375.469      0             -30271.297      4784.3754    
    322000   99.437919     -30374.715      0             -30271.901      4804.4738    
    322500   101.88249     -30374.963      0             -30269.622      4847.4891    
    323000   99.118704     -30375.62       0             -30273.136      4756.5725    
    323500   100.14882     -30373.918      0             -30270.369      4822.951     
    324000   100.29036     -30375.206      0             -30271.511      4758.5238    
    324500   98.859016     -30373.355      0             -30271.14       4899.7928    
    325000   100.54804     -30374.824      0             -30270.863      4834.3765    
    325500   100.14311     -30373.489      0             -30269.945      4871.9488    
    326000   98.880273     -30374.987      0             -30272.749      4811.3937    
    326500   100.30863     -30375.06       0             -30271.346      4782.0189    
    327000   100.02703     -30374.206      0             -30270.783      4839.3437    
    327500   99.643343     -30376.169      0             -30273.143      4727.8428    
    328000   99.817615     -30373.914      0             -30270.708      4865.5129    
    328500   99.020801     -30374.262      0             -30271.879      4805.5931    
    329000   99.546836     -30373.09       0             -30270.164      4900.4372    
    329500   100.17619     -30376.008      0             -30272.43       4728.5937    
    330000   100.9312      -30374.19       0             -30269.832      4846.5529    
    330500   100.44359     -30374.926      0             -30271.073      4855.3906    
    331000   100.2052      -30375.398      0             -30271.791      4800.6943    
    331500   99.48888      -30375.036      0             -30272.169      4827.7351    
    332000   99.073264     -30373.54       0             -30271.103      4851.7694    
    332500   99.222511     -30374.885      0             -30272.294      4766.9112    
    333000   100.83808     -30375.652      0             -30271.39       4782.1368    
    333500   101.23023     -30373.961      0             -30269.294      4818.7878    
    334000   99.223892     -30375.287      0             -30272.694      4790.7173    
    334500   100.46389     -30377.121      0             -30273.246      4706.1257    
    335000   101.77384     -30374.529      0             -30269.3        4814.5102    
    335500   98.798356     -30374.67       0             -30272.517      4790.5107    
    336000   102.10186     -30374.365      0             -30268.797      4896.5124    
    336500   100.01522     -30375.155      0             -30271.744      4855.2738    
    337000   99.944127     -30374.57       0             -30271.232      4776.1626    
    337500   99.824698     -30374.817      0             -30271.603      4851.2849    
    338000   100.70001     -30375.412      0             -30271.293      4818.3092    
    338500   100.70213     -30374.035      0             -30269.914      4860.0212    
    339000   99.657968     -30375.731      0             -30272.69       4735.6514    
    339500   100.19614     -30376.316      0             -30272.718      4761.5178    
    340000   99.638334     -30373.798      0             -30270.777      4860.728     
    340500   100.24922     -30375.001      0             -30271.348      4774.6131    
    341000   100.13104     -30375.005      0             -30271.475      4825.6369    
    341500   99.036301     -30375.299      0             -30272.9        4811.8156    
    342000   100.45592     -30375.204      0             -30271.338      4818.3613    
    342500   99.955918     -30376.41       0             -30273.06       4726.7279    
    343000   101.57551     -30374.109      0             -30269.085      4868.8882    
    343500   99.652264     -30376.231      0             -30273.195      4746.9343    
    344000   98.427251     -30373.495      0             -30271.726      4829.3313    
    344500   98.799609     -30375.483      0             -30273.329      4772.6058    
    345000   100.59309     -30374.713      0             -30270.704      4818.2302    
    345500   100.79435     -30375.342      0             -30271.125      4765.1515    
    346000   101.99462     -30374.218      0             -30268.76       4838.0833    
    346500   99.588272     -30375.672      0             -30272.703      4788.4536    
    347000   100.80861     -30373.398      0             -30269.166      4909.8593    
    347500   100.52468     -30374.761      0             -30270.823      4797.0829    
    348000   100.56594     -30373.934      0             -30269.954      4869.9121    
    348500   99.648765     -30374.927      0             -30271.895      4827.0638    
    349000   99.007144     -30375.497      0             -30273.128      4752.855     
    349500   98.020836     -30375.789      0             -30274.44       4767.3939    
    350000   99.849942     -30374.522      0             -30271.282      4781.209     
    350500   99.660787     -30376.132      0             -30273.087      4730.2778    
    351000   99.091702     -30373.703      0             -30271.247      4830.412     
    351500   101.28898     -30375.34       0             -30270.612      4815.6886    
    352000   98.986849     -30377.892      0             -30275.544      4688.1523    
    352500   99.584269     -30374.181      0             -30271.216      4837.5361    
    353000   100.64276     -30373.913      0             -30269.853      4903.779     
    353500   101.18924     -30377.101      0             -30272.476      4794.7321    
    354000   101.65725     -30375.312      0             -30270.203      4826.9803    
    354500   99.691465     -30374.715      0             -30271.638      4849.4977    
    355000   99.789634     -30375.969      0             -30272.791      4775.6956    
    355500   100.26912     -30374.398      0             -30270.725      4825.3714    
    356000   99.910956     -30375.29       0             -30271.987      4816.5546    
    356500   98.600394     -30374.603      0             -30272.655      4861.7328    
    357000   100.19085     -30374.972      0             -30271.379      4811.5267    
    357500   101.00984     -30374.688      0             -30270.249      4820.669     
    358000   100.35133     -30375.38       0             -30271.621      4823.5773    
    358500   100.02676     -30375.358      0             -30271.935      4794.3632    
    359000   99.901032     -30374.225      0             -30270.932      4845.1924    
    359500   100.28071     -30373.993      0             -30270.308      4866.4547    
    360000   100.87165     -30375.423      0             -30271.127      4776.6297    
    360500   98.342059     -30374.719      0             -30273.038      4788.8937    
    361000   99.8388       -30374.587      0             -30271.359      4809.1443    
    361500   100.74902     -30375.068      0             -30270.899      4829.5694    
    362000   98.467376     -30374.348      0             -30272.537      4851.7093    
    362500   99.518382     -30374.556      0             -30271.659      4836.0321    
    363000   98.153781     -30374.998      0             -30273.512      4810.1643    
    363500   100.63917     -30373.551      0             -30269.495      4847.6225    
    364000   100.01464     -30374.994      0             -30271.584      4832.896     
    364500   98.091913     -30373.093      0             -30271.671      4861.5248    
    365000   100.53674     -30376.549      0             -30272.599      4736.4282    
    365500   101.09816     -30375.24       0             -30270.709      4828.2765    
    366000   100.57622     -30374.338      0             -30270.347      4834.2297    
    366500   100.84761     -30374.364      0             -30270.092      4823.6201    
    367000   100.3977      -30373.68       0             -30269.873      4856.5329    
    367500   99.542783     -30373.738      0             -30270.816      4869.7187    
    368000   99.873916     -30376.621      0             -30273.356      4741.7424    
    368500   100.40816     -30374.292      0             -30270.475      4852.0872    
    369000   98.900564     -30375.283      0             -30273.025      4789.8217    
    369500   99.505044     -30375.106      0             -30272.223      4768.5722    
    370000   100.55271     -30374.425      0             -30270.458      4859.8223    
    370500   100.70254     -30376.742      0             -30272.62       4714.7233    
    371000   101.13034     -30375.664      0             -30271.1        4753.1444    
    371500   101.23965     -30374.248      0             -30269.571      4884.9214    
    372000   99.326491     -30374.583      0             -30271.885      4853.2963    
    372500   100.45827     -30374.07       0             -30270.201      4861.7027    
    373000   101.88195     -30375.5        0             -30270.159      4820.3002    
    373500   97.869176     -30375.175      0             -30273.983      4787.5225    
    374000   98.591374     -30374.923      0             -30272.985      4798.2724    
    374500   101.29063     -30376.758      0             -30272.029      4732.8563    
    375000   99.467622     -30375.421      0             -30272.576      4752.5796    
    375500   99.611295     -30373.264      0             -30270.271      4898.0762    
    376000   100.42357     -30374.466      0             -30270.633      4824.9687    
    376500   100.4526      -30376.11       0             -30272.247      4768.0608    
    377000   101.44358     -30374.259      0             -30269.371      4859.3659    
    377500   99.349947     -30375.325      0             -30272.601      4798.5311    
    378000   100.53207     -30374.307      0             -30270.361      4871.6027    
    378500   100.00601     -30373.919      0             -30270.517      4870.0181    
    379000   100.26744     -30373.302      0             -30269.63       4861.3887    
    379500   99.486107     -30375.482      0             -30272.619      4784.7147    
    380000   102.67633     -30374.318      0             -30268.156      4826.8566    
    380500   99.586086     -30375.617      0             -30272.65       4751.226     
    381000   100.46263     -30374.649      0             -30270.776      4852.9616    
    381500   100.28746     -30375.817      0             -30272.124      4774.2498    
    382000   101.76625     -30377.203      0             -30271.982      4771.5625    
    382500   98.404959     -30373.673      0             -30271.927      4873.9484    
    383000   99.504859     -30373.022      0             -30270.139      4921.5968    
    383500   99.112797     -30375.32       0             -30272.843      4771.134     
    384000   100.03601     -30372.628      0             -30269.195      4941.1539    
    384500   99.747635     -30375.273      0             -30272.138      4783.5927    
    385000   100.89164     -30374.299      0             -30269.982      4845.9312    
    385500   101.87468     -30374.437      0             -30269.103      4885.7       
    386000   98.58507      -30375.627      0             -30273.695      4765.5025    
    386500   99.005066     -30374.835      0             -30272.468      4808.3869    
    387000   100.36199     -30374.658      0             -30270.888      4824.3892    
    387500   100.97359     -30375.385      0             -30270.983      4786.3702    
    388000   98.129712     -30374.828      0             -30273.367      4785.6458    
    388500   100.24247     -30372.982      0             -30269.337      4901.1866    
    389000   100.19982     -30375.954      0             -30272.353      4709.1148    
    389500   101.06986     -30373.528      0             -30269.026      4857.3709    
    390000   98.423815     -30375.333      0             -30273.568      4774.434     
    390500   100.82035     -30376.858      0             -30272.615      4740.9663    
    391000   99.017758     -30375.992      0             -30273.612      4752.7567    
    391500   100.66955     -30373.775      0             -30269.688      4846.2478    
    392000   100.24069     -30375.454      0             -30271.81       4757.7267    
    392500   101.01247     -30375.651      0             -30271.209      4765.0228    
    393000   100.13912     -30374.726      0             -30271.187      4804.4458    
    393500   99.901616     -30373.943      0             -30270.649      4804.3518    
    394000   99.742155     -30373.744      0             -30270.616      4860.5114    
    394500   99.458237     -30373.813      0             -30270.978      4874.4028    
    395000   99.404018     -30375.358      0             -30272.579      4739.0947    
    395500   100.80132     -30375.009      0             -30270.785      4779.0953    
    396000   99.201824     -30373.57       0             -30271          4834.8606    
    396500   100.26512     -30375.113      0             -30271.444      4818.1472    
    397000   99.488841     -30374.231      0             -30271.364      4814.6966    
    397500   100.12925     -30373.944      0             -30270.415      4805.7105    
    398000   98.867928     -30375.011      0             -30272.786      4793.465     
    398500   100.19199     -30374.903      0             -30271.31       4822.3928    
    399000   99.601523     -30375.653      0             -30272.67       4758.3226    
    399500   100.13524     -30373.651      0             -30270.116      4874.8558    
    400000   99.851543     -30374.376      0             -30271.134      4814.9853    
    400500   99.615961     -30373.385      0             -30270.387      4902.3653    
    401000   99.895214     -30373.823      0             -30270.536      4857.258     
    401500   100.64183     -30374.015      0             -30269.956      4885.0019    
    402000   99.784834     -30375.534      0             -30272.361      4770.0113    
    402500   101.88717     -30375.71       0             -30270.364      4773.5767    
    403000   99.908254     -30375.337      0             -30272.037      4739.2405    
    403500   101.06209     -30375.295      0             -30270.802      4762.0776    
    404000   100.61157     -30374.36       0             -30270.332      4864.9145    
    404500   99.669075     -30373.726      0             -30270.673      4794.1761    
    405000   102.16332     -30374.071      0             -30268.44       4839.913     
    405500   99.27751      -30375.521      0             -30272.872      4793.0016    
    406000   99.762719     -30374.503      0             -30271.354      4811.1044    
    406500   100.34775     -30374.391      0             -30270.636      4825.2019    
    407000   100.30515     -30375.948      0             -30272.237      4793.8915    
    407500   101.22358     -30374.348      0             -30269.687      4813.6608    
    408000   99.894489     -30375.49       0             -30272.204      4764.7407    
    408500   99.296787     -30375.421      0             -30272.753      4764.709     
    409000   101.77447     -30374.577      0             -30269.347      4847.5366    
    409500   100.12688     -30374.462      0             -30270.935      4803.7515    
    410000   100.63793     -30376.94       0             -30272.885      4745.9953    
    410500   99.477079     -30374.947      0             -30272.092      4765.3015    
    411000   100.83973     -30373.909      0             -30269.645      4858.0766    
    411500   100.82266     -30374.053      0             -30269.807      4846.486     
    412000   101.11559     -30374.755      0             -30270.206      4854.6907    
    412500   98.738201     -30374.126      0             -30272.036      4883.5889    
    413000   100.13291     -30372.967      0             -30269.434      4906.3293    
    413500   99.984844     -30374.311      0             -30270.932      4824.684     
    414000   99.967765     -30376.538      0             -30273.176      4787.1039    
    414500   99.305917     -30373.449      0             -30270.772      4832.5315    
    415000   98.986539     -30375.15       0             -30272.803      4834.3281    
    415500   100.4095      -30374.823      0             -30271.005      4785.8114    
    416000   100.68524     -30375.668      0             -30271.564      4787.9881    
    416500   98.553309     -30374.24       0             -30272.34       4842.4127    
    417000   101.775       -30374.762      0             -30269.532      4825.889     
    417500   99.835604     -30373.11       0             -30269.885      4906.5115    
    418000   100.1396      -30374.947      0             -30271.408      4790.165     
    418500   98.933054     -30375.025      0             -30272.733      4798.7514    
    419000   98.999092     -30374.407      0             -30272.046      4772.719     
    419500   100.53339     -30372.925      0             -30268.978      4889.6864    
    420000   99.895416     -30373.708      0             -30270.421      4825.7669    
    420500   100.68274     -30374.842      0             -30270.741      4821.6684    
    421000   100.34488     -30375.206      0             -30271.455      4769.5475    
    421500   100.28324     -30375.315      0             -30271.626      4784.4582    
    422000   98.552498     -30373.82       0             -30271.921      4844.3386    
    422500   100.25053     -30375.677      0             -30272.022      4765.8025    
    423000   101.40878     -30375.224      0             -30270.373      4781.6677    
    423500   99.311974     -30374.089      0             -30271.405      4811.3556    
    424000   101.19451     -30373.557      0             -30268.927      4849.2902    
    424500   99.286588     -30375.548      0             -30272.891      4755.1759    
    425000   100.04517     -30374.172      0             -30270.73       4869.5855    
    425500   100.41489     -30374.027      0             -30270.202      4823.2577    
    426000   100.05799     -30376.497      0             -30273.042      4719.8679    
    426500   100.77346     -30375.333      0             -30271.139      4790.351     
    427000   100.77341     -30374.163      0             -30269.968      4842.1833    
    427500   101.44125     -30376.306      0             -30271.421      4782.2775    
    428000   100.12199     -30375.275      0             -30271.754      4745.3532    
    428500   99.016383     -30375.616      0             -30273.238      4740.7719    
    429000   99.541993     -30375.788      0             -30272.867      4791.9945    
    429500   101.06967     -30375.027      0             -30270.526      4808.0655    
    430000   98.87973      -30373.788      0             -30271.551      4830.2748    
    430500   100.41813     -30375.214      0             -30271.386      4749.4947    
    431000   100.39934     -30375.137      0             -30271.329      4771.1268    
    431500   100.3389      -30373.852      0             -30270.107      4855.7031    
    432000   100.96204     -30375.079      0             -30270.689      4798.6387    
    432500   98.241248     -30373.337      0             -30271.761      4869.0289    
    433000   101.03189     -30374.682      0             -30270.22       4816.3472    
    433500   99.491326     -30374.724      0             -30271.855      4820.0061    
    434000   102.3867      -30375.187      0             -30269.324      4819.3374    
    434500   99.945331     -30374.688      0             -30271.35       4810.8588    
    435000   99.506411     -30375.307      0             -30272.422      4792.283     
    435500   100.77288     -30375.983      0             -30271.788      4775.2564    
    436000   99.953605     -30374.667      0             -30271.32       4847.2511    
    436500   100.42566     -30375.291      0             -30271.455      4776.0217    
    437000   100.03136     -30374.38       0             -30270.952      4797.5037    
    437500   99.050987     -30375.776      0             -30273.362      4765.8348    
    438000   100.54042     -30375.439      0             -30271.485      4803.3414    
    438500   99.562114     -30374.468      0             -30271.525      4803.5897    
    439000   99.757779     -30373.338      0             -30270.194      4878.7974    
    439500   99.221067     -30375.585      0             -30272.995      4789.9338    
    440000   99.890648     -30375.009      0             -30271.726      4747.4176    
    440500   100.40349     -30375.401      0             -30271.589      4773.6187    
[...]
   1892500   99.944464     -30377.662      0             -30274.324      4727.8182    
   1893000   101.07549     -30374.514      0             -30270.007      4838.6513    
   1893500   98.99195      -30375.709      0             -30273.356      4767.1429    
   1894000   97.512046     -30374.092      0             -30273.269      4814.4029    
   1894500   100.28723     -30375.017      0             -30271.325      4776.5606    
   1895000   98.66798      -30375.106      0             -30273.088      4804.0919    
   1895500   99.610689     -30374.271      0             -30271.278      4813.4086    
   1896000   100.6011      -30373.12       0             -30269.103      4891.6733    
   1896500   101.24166     -30374.859      0             -30270.18       4828.9779    
   1897000   100.30679     -30374.197      0             -30270.485      4821.25      
   1897500   98.328758     -30374.972      0             -30273.305      4797.9377    
   1898000   98.055599     -30375.228      0             -30273.843      4743.9881    
   1898500   100.35222     -30375.409      0             -30271.65       4815.1364    
   1899000   101.25724     -30374.755      0             -30270.059      4787.0503    
   1899500   99.305025     -30376.1        0             -30273.424      4760.3002    
   1900000   101.68009     -30374.144      0             -30269.011      4873.2134    
   1900500   97.814943     -30375.439      0             -30274.303      4818.7225    
   1901000   99.856823     -30373.786      0             -30270.539      4873.184     
   1901500   99.873044     -30373.78       0             -30270.516      4844.5953    
   1902000   99.533201     -30374.326      0             -30271.413      4841.0801    
   1902500   100.51398     -30374.266      0             -30270.34       4849.7427    
   1903000   99.321629     -30372.758      0             -30270.064      4850.0717    
   1903500   101.49673     -30374.936      0             -30269.993      4806.0092    
   1904000   100.5116      -30375.285      0             -30271.36       4791.0552    
   1904500   99.912599     -30375.385      0             -30272.08       4797.171     
   1905000   99.652701     -30375.433      0             -30272.397      4777.1493    
   1905500   101.60912     -30373.984      0             -30268.925      4859.7827    
   1906000   99.632255     -30376.549      0             -30273.534      4753.2712    
   1906500   101.51184     -30374.107      0             -30269.149      4875.7426    
   1907000   100.03881     -30373.314      0             -30269.878      4907.3145    
   1907500   100.83386     -30375.115      0             -30270.857      4797.1802    
   1908000   100.38166     -30375.939      0             -30272.149      4776.4142    
   1908500   100.5659      -30374.708      0             -30270.727      4844.6599    
   1909000   100.82982     -30374.537      0             -30270.284      4889.5414    
   1909500   100.56465     -30374.029      0             -30270.05       4889.0904    
   1910000   100.05067     -30374.732      0             -30271.285      4795.0964    
   1910500   100.12878     -30377.009      0             -30273.48       4719.3991    
   1911000   100.45651     -30373.466      0             -30269.599      4899.7915    
   1911500   101.28465     -30374.593      0             -30269.869      4834.4426    
   1912000   98.990888     -30375.277      0             -30272.925      4809.3665    
   1912500   99.458911     -30373.802      0             -30270.966      4843.5566    
   1913000   100.11504     -30376.188      0             -30272.674      4749.7314    
   1913500   100.36855     -30375.006      0             -30271.229      4805.2907    
   1914000   100.66424     -30374.97       0             -30270.888      4793.2117    
   1914500   100.52485     -30374.017      0             -30270.08       4820.2453    
   1915000   100.54796     -30373.605      0             -30269.643      4844.3584    
   1915500   98.800679     -30374.959      0             -30272.804      4837.8875    
   1916000   99.97589      -30375.326      0             -30271.955      4811.5049    
   1916500   99.934452     -30374.377      0             -30271.05       4816.0742    
   1917000   98.708454     -30374.378      0             -30272.318      4801.2501    
   1917500   100.45728     -30374.858      0             -30270.99       4803.5886    
   1918000   99.896652     -30374.871      0             -30271.582      4797.9404    
   1918500   99.70131      -30374.024      0             -30270.937      4828.0778    
   1919000   99.390547     -30374.673      0             -30271.908      4852.8406    
   1919500   98.793878     -30374.754      0             -30272.606      4817.7225    
   1920000   99.98631      -30373.83       0             -30270.449      4822.2804    
   1920500   99.719092     -30373.682      0             -30270.577      4800.6777    
   1921000   99.26751      -30375.149      0             -30272.512      4793.2837    
   1921500   101.85267     -30375.483      0             -30270.172      4844.633     
   1922000   100.54043     -30374.749      0             -30270.795      4867.5087    
   1922500   99.603961     -30375.071      0             -30272.085      4817.4513    
   1923000   100.75551     -30374.369      0             -30270.193      4810.9119    
   1923500   99.569019     -30375.441      0             -30272.492      4756.7723    
   1924000   100.82898     -30373.665      0             -30269.412      4871.7052    
   1924500   98.192938     -30373.32       0             -30271.794      4877.2963    
   1925000   99.885196     -30373.403      0             -30270.127      4835.4591    
   1925500   99.680015     -30374.9        0             -30271.836      4792.9105    
   1926000   100.4686      -30373.52       0             -30269.64       4865.206     
   1926500   100.30271     -30376.136      0             -30272.428      4791.3983    
   1927000   101.5896      -30374.34       0             -30269.302      4906.1496    
   1927500   100.03734     -30375.438      0             -30272.005      4783.4184    
   1928000   100.78112     -30374.299      0             -30270.096      4844.7894    
   1928500   100.61999     -30373.033      0             -30268.996      4949.9322    
   1929000   100.12906     -30375.185      0             -30271.656      4791.4655    
   1929500   99.366287     -30375.758      0             -30273.018      4806.1533    
   1930000   99.736497     -30375.69       0             -30272.567      4771.1249    
   1930500   100.99046     -30374.205      0             -30269.786      4863.0009    
   1931000   99.189515     -30375.221      0             -30272.664      4760.494     
   1931500   100.00693     -30374.367      0             -30270.965      4790.4232    
   1932000   99.486864     -30373.754      0             -30270.89       4822.0822    
   1932500   99.8611       -30374.625      0             -30271.373      4836.8941    
   1933000   101.17344     -30374.036      0             -30269.428      4833.4063    
   1933500   99.739716     -30374.808      0             -30271.682      4833.7371    
   1934000   99.830125     -30373.491      0             -30270.271      4860.9177    
   1934500   100.67718     -30375.623      0             -30271.528      4789.4406    
   1935000   98.956711     -30375.986      0             -30273.67       4761.7345    
   1935500   100.18702     -30374.104      0             -30270.515      4824.8203    
   1936000   100.49531     -30375.103      0             -30271.195      4766.4975    
   1936500   101.84024     -30376.02       0             -30270.722      4733.2852    
   1937000   97.241314     -30375.437      0             -30274.894      4752.4303    
   1937500   99.574064     -30375.425      0             -30272.47       4803.9697    
   1938000   98.396785     -30375.304      0             -30273.567      4768.7803    
   1938500   101.7046      -30374.047      0             -30268.89       4836.6779    
   1939000   99.407591     -30375.399      0             -30272.616      4786.9484    
   1939500   100.72508     -30375.42       0             -30271.275      4780.2789    
   1940000   100.21998     -30374.104      0             -30270.481      4823.6645    
   1940500   100.74314     -30375.183      0             -30271.02       4804.492     
   1941000   98.40457      -30374.287      0             -30272.542      4820.6247    
   1941500   98.368106     -30374.858      0             -30273.15       4763.415     
   1942000   100.21968     -30374.819      0             -30271.197      4791.4648    
   1942500   99.724507     -30375.128      0             -30272.018      4837.1622    
   1943000   100.25209     -30374.334      0             -30270.678      4794.4676    
   1943500   101.22771     -30375.501      0             -30270.836      4745.9125    
   1944000   101.2612      -30374.364      0             -30269.665      4843.6633    
   1944500   101.1462      -30373.447      0             -30268.866      4833.0413    
   1945000   99.95475      -30374.314      0             -30270.965      4802.2087    
   1945500   99.724766     -30374.921      0             -30271.81       4703.0101    
   1946000   99.340195     -30375.351      0             -30272.638      4749.1102    
   1946500   99.882739     -30375.315      0             -30272.041      4728.9868    
   1947000   99.32748      -30377.064      0             -30274.364      4725.7996    
   1947500   100.46146     -30374.847      0             -30270.975      4810.6917    
   1948000   100.01353     -30373.905      0             -30270.496      4851.9795    
   1948500   98.877744     -30375.302      0             -30273.068      4728.7611    
   1949000   97.510642     -30374.648      0             -30273.827      4753.3601    
   1949500   99.892912     -30375.916      0             -30272.632      4789.2302    
   1950000   101.76476     -30375.903      0             -30270.683      4796.3138    
   1950500   98.969658     -30375.208      0             -30272.878      4768.0919    
   1951000   99.071916     -30373.837      0             -30271.401      4841.7229    
   1951500   99.57728      -30375.989      0             -30273.031      4781.628     
   1952000   99.965403     -30374.191      0             -30270.832      4844.0122    
   1952500   101.30929     -30374.499      0             -30269.75       4827.3313    
   1953000   98.975359     -30374.037      0             -30271.701      4851.0644    
   1953500   99.906286     -30375.829      0             -30272.53       4756.8421    
   1954000   100.71941     -30374.82       0             -30270.68       4840.7324    
   1954500   99.839378     -30373.177      0             -30269.948      4871.3589    
   1955000   99.336322     -30376.75       0             -30274.042      4681.4809    
   1955500   97.602469     -30375.26       0             -30274.344      4781.5764    
   1956000   100.67637     -30374.909      0             -30270.815      4822.6556    
   1956500   99.37336      -30373.921      0             -30271.174      4847.505     
   1957000   100.55749     -30375.562      0             -30271.59       4787.9821    
   1957500   100.77825     -30374.605      0             -30270.405      4818.0698    
   1958000   99.965552     -30374.883      0             -30271.524      4786.8127    
   1958500   100.23336     -30375.216      0             -30271.579      4784.0446    
   1959000   99.902806     -30372.691      0             -30269.397      4894.2476    
   1959500   99.92741      -30375.148      0             -30271.828      4752.8604    
   1960000   100.92816     -30373.771      0             -30269.416      4892.4684    
   1960500   101.25299     -30375.948      0             -30271.257      4776.3174    
   1961000   99.408777     -30375.4        0             -30272.616      4756.5227    
   1961500   98.710887     -30374.998      0             -30272.936      4813.7483    
   1962000   101.96354     -30375.686      0             -30270.26       4773.8197    
   1962500   98.926496     -30374.416      0             -30272.131      4824.7625    
   1963000   101.36776     -30374.788      0             -30269.979      4830.2369    
   1963500   100.47053     -30375.181      0             -30271.299      4783.6626    
   1964000   98.859437     -30375.647      0             -30273.431      4756.2668    
   1964500   99.221438     -30374.632      0             -30272.042      4837.4696    
   1965000   99.741431     -30373.899      0             -30270.771      4848.1585    
   1965500   100.61586     -30373.937      0             -30269.905      4814.6501    
   1966000   100.41878     -30375.5        0             -30271.672      4728.2552    
   1966500   100.29893     -30374.558      0             -30270.854      4794.1989    
   1967000   98.593951     -30376.297      0             -30274.355      4743.2363    
   1967500   98.781158     -30373.298      0             -30271.163      4885.3606    
   1968000   99.532855     -30374.173      0             -30271.261      4845.7551    
   1968500   100.57151     -30375.949      0             -30271.963      4770.5619    
   1969000   98.981922     -30375.197      0             -30272.854      4837.0472    
   1969500   100.283       -30372.741      0             -30269.053      4888.4724    
   1970000   99.015973     -30375.013      0             -30272.635      4829.621     
   1970500   98.680125     -30374.781      0             -30272.75       4780.0708    
   1971000   100.5002      -30373.903      0             -30269.99       4852.3881    
   1971500   99.784204     -30374.638      0             -30271.466      4847.2879    
   1972000   99.508093     -30377.189      0             -30274.303      4717.3823    
   1972500   100.47673     -30375.415      0             -30271.527      4747.4497    
   1973000   98.733497     -30374.022      0             -30271.936      4854.5606    
   1973500   100.93265     -30374.461      0             -30270.102      4778.9845    
   1974000   100.72723     -30374.639      0             -30270.492      4808.7911    
   1974500   101.75921     -30373          0             -30267.786      4926.1437    
   1975000   100.14752     -30374.867      0             -30271.319      4761.2862    
   1975500   99.774185     -30375.743      0             -30272.582      4749.2278    
   1976000   100.70065     -30374.367      0             -30270.247      4856.4697    
   1976500   99.81235      -30375.448      0             -30272.247      4790.0268    
   1977000   99.366032     -30373.866      0             -30271.126      4833.4464    
   1977500   100.1517      -30374.845      0             -30271.293      4813.2403    
   1978000   99.954423     -30375.404      0             -30272.056      4773.9964    
   1978500   98.141097     -30375.385      0             -30273.912      4748.7836    
   1979000   99.863321     -30374.991      0             -30271.737      4830.868     
   1979500   100.73469     -30375.794      0             -30271.639      4788.8662    
   1980000   101.17872     -30373.541      0             -30268.927      4919.1877    
   1980500   101.78865     -30375.84       0             -30270.595      4817.4997    
   1981000   100.39291     -30374.268      0             -30270.467      4843.5658    
   1981500   99.840626     -30375.721      0             -30272.49       4785.932     
   1982000   99.909151     -30375.126      0             -30271.825      4759.5027    
   1982500   96.851552     -30376.056      0             -30275.916      4745.8446    
   1983000   99.605472     -30374.228      0             -30271.241      4774.1317    
   1983500   98.950736     -30375.736      0             -30273.425      4760.8065    
   1984000   100.97748     -30373.586      0             -30269.18       4866.8738    
   1984500   98.88124      -30374.572      0             -30272.333      4843.1958    
   1985000   100.46143     -30373.451      0             -30269.579      4856.3786    
   1985500   98.949183     -30373.393      0             -30271.084      4826.5932    
   1986000   100.32549     -30375.11       0             -30271.378      4800.9692    
   1986500   101.16029     -30375.644      0             -30271.049      4780.3124    
   1987000   101.61286     -30373.642      0             -30268.579      4870.0905    
   1987500   99.699384     -30374.562      0             -30271.478      4832.4016    
   1988000   100.94574     -30374.88       0             -30270.507      4815.5397    
   1988500   99.175971     -30375.815      0             -30273.272      4784.6316    
   1989000   101.41784     -30375.449      0             -30270.587      4754.4178    
   1989500   101.06709     -30373.536      0             -30269.037      4888.762     
   1990000   100.68296     -30376.779      0             -30272.677      4716.5831    
   1990500   98.380461     -30374.511      0             -30272.79       4801.7313    
   1991000   102.04791     -30373.112      0             -30267.599      4908.274     
   1991500   98.76053      -30375.934      0             -30273.82       4735.537     
   1992000   100.35866     -30375.924      0             -30272.158      4812.1883    
   1992500   101.61695     -30375.362      0             -30270.295      4829.3421    
   1993000   99.297019     -30375.254      0             -30272.586      4769.8168    
   1993500   100.55737     -30374.07       0             -30270.099      4823.3305    
   1994000   98.544298     -30374.462      0             -30272.572      4849.0022    
   1994500   100.39767     -30373.258      0             -30269.452      4907.5515    
   1995000   98.93737      -30374.193      0             -30271.896      4815.498     
   1995500   101.69886     -30375.014      0             -30269.862      4846.4972    
   1996000   101.10017     -30374.631      0             -30270.099      4839.8737    
   1996500   99.070149     -30375.248      0             -30272.815      4774.1561    
   1997000   99.745416     -30375.371      0             -30272.239      4804.2099    
   1997500   99.461469     -30374.408      0             -30271.57       4852.9139    
   1998000   99.293339     -30374.464      0             -30271.8        4821.4376    
   1998500   99.309193     -30372.778      0             -30270.097      4885.5077    
   1999000   99.124933     -30374.705      0             -30272.214      4830.1356    
   1999500   98.200095     -30374.537      0             -30273.003      4853.1578    
   2000000   99.458839     -30373.856      0             -30271.02       4833.6397    
Loop time of 4265.51 on 10 procs for 2000000 steps with 8000 atoms

Performance: 40.511 ns/day, 0.592 hours/ns, 468.877 timesteps/s
97.3% CPU use with 10 MPI tasks x no OpenMP threads

MPI task timing breakdown:
Section |  min time  |  avg time  |  max time  |%varavg| %total
---------------------------------------------------------------
Pair    | 3758.7     | 3795.7     | 3822.1     |  27.3 | 88.99
Neigh   | 5.1843     | 5.2018     | 5.2365     |   0.6 |  0.12
Comm    | 347.11     | 369.05     | 405.01     |  85.4 |  8.65
Output  | 2.3833     | 2.4129     | 2.4561     |   1.1 |  0.06
Modify  | 49.978     | 52.123     | 54.33      |  20.8 |  1.22
Other   |            | 41.01      |            |       |  0.96

Nlocal:            800 ave         815 max         779 min
Histogram: 1 1 1 1 0 0 1 0 3 2
Nghost:         4392.5 ave        4417 max        4365 min
Histogram: 2 1 0 0 1 2 1 0 1 2
Neighs:         100350 ave      102902 max       98145 min
Histogram: 2 2 0 0 1 0 1 3 0 1

Total # of neighbors = 1003497
Ave neighs/atom = 125.43712
Neighbor list builds = 2000
Dangerous builds = 0
Total wall time: 1:11:06
