LAMMPS (23 Jun 2022 - Update 4)
Lattice spacing in x,y,z = 5.5392 5.5392 5.5392
Created orthogonal box = (0 0 0) to (110.784 110.784 110.784)
  1 by 2 by 5 MPI processor grid
Created 64000 atoms
  using lattice units in orthogonal box = (0 0 0) to (110.784 110.784 110.784)
  create_atoms CPU = 0.003 seconds
32000 atoms in group Ba
32000 atoms in group O
WARNING: 23463 of 50000 force values in table Vash_11 are inconsistent with -dE/dr.
WARNING:  Should only be flagged at inflection points (../pair_table.cpp:463)
WARNING: 43814 of 50000 distance values in table 1e-06 with relative error
WARNING:  over Vash_11 to re-computed values (../pair_table.cpp:471)
WARNING: 23576 of 50000 force values in table Vash_12 are inconsistent with -dE/dr.
WARNING:  Should only be flagged at inflection points (../pair_table.cpp:463)
WARNING: 43814 of 50000 distance values in table 1e-06 with relative error
WARNING:  over Vash_12 to re-computed values (../pair_table.cpp:471)
WARNING: 23794 of 50000 force values in table Vash_22 are inconsistent with -dE/dr.
WARNING:  Should only be flagged at inflection points (../pair_table.cpp:463)
WARNING: 43814 of 50000 distance values in table 1e-06 with relative error
WARNING:  over Vash_22 to re-computed values (../pair_table.cpp:471)
Generated 0 of 1 mixed pair_coeff terms from geometric mixing rule
Neighbor list info ...
  update every 8 steps, delay 0 steps, check yes
  max neighbors/atom: 2000, page size: 100000
  master list distance cutoff = 11
  ghost atom cutoff = 11
  binsize = 5.5, bins = 21 21 21
  1 neighbor lists, perpetual/occasional/extra = 1 0 0
  (1) pair table, perpetual
      attributes: half, newton on
      pair build: half/bin/atomonly/newton
      stencil: half/bin/3d
      bin: standard
Setting up Verlet run ...
  Unit style    : metal
  Current step  : 0
  Time step     : 0.001
Per MPI rank memory allocation (min/avg/max) = 8.384 | 9.056 | 9.533 Mbytes
   Step          Temp          E_pair         E_mol          TotEng         Press          Volume    
         0   1300          -243821.04      0             -233066.76      8135.7685      1359662.5    
       500   665.22555     -238357.27      0             -232854.18      31002.475      1359664.3    
      1000   707.86712     -238395.36      0             -232539.51      31381.087      1359669.9    
      1500   723.58971     -238163.38      0             -232177.47      32548.603      1359679.3    
      2000   749.27562     -237979.44      0             -231781.04      33711.593      1359692.6    
      2500   779.24727     -237802.64      0             -231356.3       34677.123      1359710      
      3000   807.54067     -237587.06      0             -230906.67      35932.119      1359731.5    
      3500   832.79462     -237325.37      0             -230436.06      37163.91       1359757.4    
      4000   868.02095     -237127.44      0             -229946.72      38434.298      1359787.8    
      4500   896.76208     -236860.01      0             -229441.53      39609.849      1359822.9    
      5000   927.52963     -236595.99      0             -228922.99      41066.96       1359862.7    
      5500   966.9677      -236393.55      0             -228394.29      42273.723      1359907.5    
      6000   994.29602     -236083.89      0             -227858.56      43923.355      1359957.4    
      6500   1033.9484     -235873.03      0             -227319.67      45128.398      1360012.6    
      7000   1068.4142     -235620.1       0             -226781.62      46371.021      1360073.2    
      7500   1102.5611     -235369.64      0             -226248.68      47828.382      1360139.4    
      8000   1137.5934     -235136.82      0             -225726.06      49178.582      1360211.3    
      8500   1170.346      -234901.32      0             -225219.61      50385.289      1360289.2    
      9000   1200.549      -234667.09      0             -224735.53      51529.072      1360373.1    
      9500   1231.6137     -234469.38      0             -224280.83      52577.727      1360463.2    
     10000   1255.0474     -234247.17      0             -223864.76      53586.354      1360559.6    
     10500   1285.6097     -234131.88      0             -223496.65      54333.928      1360662.4    
     11000   1302.354      -233962.79      0             -223189.04      55081.94       1360771.8    
     11500   1319.8875     -233874.68      0             -222955.88      55457.217      1360887.6    
     12000   1326.6073     -233790.21      0             -222815.83      55900.607      1361010.1    
     12500   1327.6568     -233769.56      0             -222786.49      55932.017      1361139.3    
     13000   1317.246      -233769.31      0             -222872.37      55873.592      1361275      
     13500   1309.0315     -233870.38      0             -223041.39      55164.774      1361417.2    
     14000   1298.2478     -233975.96      0             -223236.18      54641.468      1361565.8    
     14500   1285.0355     -234036.12      0             -223405.64      54290.684      1361720.8    
     15000   1277.1907     -234081.71      0             -223516.12      54044.652      1361881.9    
     15500   1276.217      -234105.54      0             -223548.01      53623.456      1362049.2    
     16000   1284.8331     -234123.85      0             -223495.04      53609.37       1362222.5    
     16500   1290.1686     -234047.84      0             -223374.9       54053.128      1362401.7    
     17000   1295.3907     -233940.33      0             -223224.18      54500.452      1362586.8    
     17500   1309.9754     -233920.71      0             -223083.91      54502.061      1362777.7    
     18000   1315.131      -233865.24      0             -222985.79      54739.844      1362974.4    
     18500   1315.7004     -233835.73      0             -222951.57      54553.336      1363176.7    
     19000   1315.4791     -233871.38      0             -222989.05      54548.108      1363384.6    
     19500   1307.2151     -233902.29      0             -223088.33      54133.077      1363597.9    
     20000   1297.9612     -233955.37      0             -223217.96      53865.8        1363816.4    
     20500   1287.3308     -233991.06      0             -223341.59      53490.338      1364039.8    
     21000   1282.0729     -234036.07      0             -223430.1       53064.481      1364268.1    
     21500   1283.013      -234077.99      0             -223464.24      52905.154      1364501      
     22000   1289.6696     -234104.75      0             -223435.93      52716.469      1364738.3    
     22500   1293.102      -234050.85      0             -223353.64      52857.49       1364979.8    
     23000   1300.6056     -234001.4       0             -223242.11      53139.742      1365225.3    
     23500   1301.8668     -233901.77      0             -223132.05      53184.535      1365474.6    
     24000   1314.981      -233929.61      0             -223051.4       53073.542      1365727.5    
     24500   1314.5324     -233893.64      0             -223019.15      53224.655      1365983.9    
     25000   1308.5816     -233868.24      0             -223042.97      53337.119      1366243.5    
     25500   1306.5843     -233924.54      0             -223115.79      52806.44       1366506.1    
     26000   1303.6243     -234000.85      0             -223216.59      52426.901      1366771.3    
     26500   1296.4042     -234041.44      0             -223316.91      52052.943      1367038.9    
     27000   1286.5075     -234035.42      0             -223392.76      52055.804      1367308.6    
     27500   1291.2041     -234106.67      0             -223425.16      51512.431      1367580.1    
     28000   1287.1307     -234055.31      0             -223407.5       51558.555      1367853.1    
     28500   1289.9681     -234015.31      0             -223344.02      51609.896      1368127.5    
     29000   1298.0001     -233991.32      0             -223253.59      51644.83       1368403      
     29500   1307.4306     -233976.73      0             -223160.99      51768.198      1368679.3    
     30000   1317.587      -233989.76      0             -223089.99      51595.095      1368956.2    
     30500   1308.195      -233880.26      0             -223058.19      51831.911      1369233.5    
     31000   1313.1376     -233935.66      0             -223072.7       51589.377      1369511      
     31500   1304.2509     -233918.31      0             -223128.87      51433.191      1369788.5    
     32000   1297.8291     -233948.54      0             -223212.23      51174.271      1370065.7    
     32500   1293.2223     -233998.28      0             -223300.07      50942.141      1370342.5    
     33000   1288.8801     -234030.89      0             -223368.6       50491.659      1370618.5    
     33500   1283.5879     -234020.2       0             -223401.7       50520.726      1370893.6    
     34000   1288.558      -234049.88      0             -223390.26      50449.919      1371167.6    
     34500   1292.4955     -234030.42      0             -223338.23      50313.286      1371440.4    
     35000   1296.1192     -233983.17      0             -223261         50259.063      1371711.8    
     35500   1301.1942     -233942.9       0             -223178.74      50562.359      1371981.8    
     36000   1310.0692     -233951.21      0             -223113.64      50315.264      1372250.3    
     36500   1309.9492     -233918.86      0             -223082.28      50328.834      1372517.2    
     37000   1308.6227     -233917.97      0             -223092.36      50188.394      1372782.4    
     37500   1303.0164     -233919.5       0             -223140.27      50037.112      1373045.9    
     38000   1302.3873     -233987.39      0             -223213.37      49733.202      1373307.7    
     38500   1297.8564     -234027.52      0             -223290.98      49436.679      1373567.5    
     39000   1296.842      -234080.88      0             -223352.73      48959.722      1373825.5    
     39500   1292.9323     -234078.89      0             -223383.08      48905.863      1374081.6    
     40000   1288.0643     -234030.69      0             -223375.15      49012.173      1374335.7    
     40500   1293.013      -234026.98      0             -223330.51      49024.663      1374588      
     41000   1299.3117     -234010.61      0             -223262.03      48980.622      1374838.3    
     41500   1299.6266     -233938.53      0             -223187.35      49283.372      1375086.9    
     42000   1311.6115     -233976.78      0             -223126.45      48940.645      1375333.8    
     42500   1307.0062     -233907.99      0             -223095.76      49071.527      1375579      
     43000   1306.6692     -233911.06      0             -223101.61      49123.701      1375822.6    
     43500   1302.1911     -233915.46      0             -223143.05      49042.808      1376064.6    
     44000   1301.8666     -233977.38      0             -223207.66      48497.957      1376305.2    
     44500   1295.0928     -233990.79      0             -223277.11      48344.494      1376544.4    
     45000   1292.7249     -234028.06      0             -223333.97      47850.776      1376782.2    
     45500   1290.1444     -234036.86      0             -223364.11      47813.129      1377018.7    
     46000   1294.3659     -234066.77      0             -223359.11      47588.959      1377254      
     46500   1290.3723     -233995.92      0             -223321.29      47881.237      1377488.2    
     47000   1299.6459     -234012.04      0             -223260.69      47696.447      1377721.3    
     47500   1303.8751     -233979.6       0             -223193.26      47832.445      1377953.6    
     48000   1302.0168     -233908.35      0             -223137.39      48080.343      1378185      
     48500   1308.3423     -233930.18      0             -223106.89      47796.277      1378415.6    
     49000   1310.9363     -233954.21      0             -223109.46      47672.005      1378645.7    
     49500   1308.8467     -233972.39      0             -223144.93      47517.773      1378875.2    
     50000   1299.8925     -233955.86      0             -223202.48      47422.211      1379104.2    
     50500   1297.1796     -233997.38      0             -223266.44      47228.708      1379332.8    
     51000   1299.0039     -234066.2       0             -223320.17      46851.019      1379561      
     51500   1291.5916     -234033.99      0             -223349.28      46678.474      1379789      
     52000   1293.9719     -234051.66      0             -223347.25      46715.53       1380016.6    
     52500   1297.1647     -234044.5       0             -223313.68      46597.955      1380244.1    
     53000   1298.192      -233997.34      0             -223258.02      46669.702      1380471.4    
     53500   1300.976      -233957.19      0             -223194.84      46741.973      1380698.7    
     54000   1310.75       -233984.19      0             -223140.99      46656.057      1380926      
     54500   1304.8944     -233904.41      0             -223109.65      46858.894      1381153.4    
     55000   1304.9652     -233904.32      0             -223108.97      46893.86       1381381      
     55500   1299.1884     -233886.27      0             -223138.71      46598.459      1381608.7    
     56000   1294.0606     -233895.78      0             -223190.64      46516.946      1381836.6    
     56500   1303.2356     -234030.75      0             -223249.71      45948.952      1382064.7    
     57000   1294.0268     -234005.4       0             -223300.53      45852.423      1382293      
     57500   1290.7996     -234009.15      0             -223330.98      45880.418      1382521.6    
     58000   1297.1169     -234063.06      0             -223332.63      45630.207      1382750.3    
     58500   1291.1302     -233986.54      0             -223305.64      45758.396      1382979.4    
     59000   1295.042      -233969.38      0             -223256.12      45634.54       1383208.6    
     59500   1301.3211     -233963.17      0             -223197.97      45610.023      1383438.2    
     60000   1307.5607     -233963.04      0             -223146.21      45697.951      1383668.1    
     60500   1300.8359     -233875.23      0             -223114.04      45874.024      1383898.3    
     61000   1307.4593     -233925.58      0             -223109.59      45396.284      1384128.8    
     61500   1302.5698     -233910.48      0             -223134.95      45627.418      1384359.6    
     62000   1304.0419     -233969.46      0             -223181.75      45214.264      1384590.8    
     62500   1295.4946     -233954.31      0             -223237.3       45101.696      1384822.2    
     63000   1296.2183     -234009.86      0             -223286.87      44756.108      1385053.8    
     63500   1292.7935     -234011.89      0             -223317.23      44611.604      1385285.7    
     64000   1287.6381     -233972.67      0             -223320.66      44564.594      1385517.7    
     64500   1300.0202     -234049.7       0             -223295.25      44305.399      1385749.9    
     65000   1297.2009     -233979.8       0             -223248.68      44664.869      1385982.2    
     65500   1299.1694     -233940.03      0             -223192.62      44649.373      1386214.7    
     66000   1307.3768     -233958.44      0             -223143.14      44547.2        1386447.2    
     66500   1307.8146     -233930.97      0             -223112.05      44634.025      1386679.9    
     67000   1305.8437     -233909.93      0             -223107.31      44650.747      1386912.6    
     67500   1304.4927     -233921.19      0             -223129.74      44214.201      1387145.4    
     68000   1301.79       -233941.68      0             -223172.6       43994.953      1387378.3    
     68500   1297.3212     -233956.55      0             -223224.43      43820.255      1387611      
     69000   1298.9057     -234015.59      0             -223270.37      43703.445      1387843.7    
     69500   1292.2539     -233988.38      0             -223298.18      43743.242      1388076.3    
     70000   1296.5103     -234026.03      0             -223300.62      43581.613      1388308.6    
     70500   1295.347      -233993.41      0             -223277.63      43342.357      1388540.8    
     71000   1297.999      -233973.1       0             -223235.38      43613.675      1388772.7    
     71500   1301.1629     -233949.19      0             -223185.3       43510.624      1389004.3    
     72000   1303.7008     -233924.59      0             -223139.7       43651.221      1389235.7    
     72500   1299.0121     -233855.65      0             -223109.55      43645.104      1389466.8    
     73000   1308.2969     -233925.94      0             -223103.02      43227.05       1389697.5    
     73500   1303.9581     -233909.55      0             -223122.53      43429.863      1389927.9    
     74000   1303.9116     -233947.28      0             -223160.64      42922.452      1390157.9    
     74500   1300.6295     -233967.78      0             -223208.29      42898.044      1390387.4    
     75000   1292.7077     -233945.66      0             -223251.71      43072.877      1390616.4    
     75500   1295.2081     -233993.39      0             -223278.75      42582.319      1390845      
     76000   1288.3248     -233940.52      0             -223282.83      42636.263      1391072.9    
     76500   1298.3539     -234003.33      0             -223262.67      42371.805      1391300.2    
     77000   1295.5968     -233941.29      0             -223223.44      42826.372      1391526.9    
     77500   1307.055      -233988.23      0             -223175.59      42482.575      1391753      
     78000   1308.8849     -233960.29      0             -223132.51      42253.258      1391978.5    
     78500   1296.2237     -233826.7       0             -223103.66      42792.34       1392203.3    
     79000   1306.6699     -233905.29      0             -223095.84      42369.874      1392427.4    
     79500   1308.1247     -233933.64      0             -223112.15      42100.192      1392650.9    
     80000   1301.9001     -233917.03      0             -223147.04      42199.131      1392873.7    
     80500   1300.543      -233949.99      0             -223191.22      41872.787      1393095.7    
     81000   1297.6161     -233966.76      0             -223232.21      41703.646      1393317      
     81500   1296.0405     -233980.52      0             -223259         41713.551      1393537.5    
     82000   1294.422      -233972.36      0             -223264.23      41656.384      1393757.1    
     82500   1291.3338     -233929.47      0             -223246.88      41793.9        1393976      
     83000   1294.2327     -233917.56      0             -223211         41697.309      1394194.1    
     83500   1305.0452     -233962.45      0             -223166.43      41662.08       1394411.3    
     84000   1303.6441     -233908.99      0             -223124.57      41441.182      1394627.7    
     84500   1299.5767     -233846.36      0             -223095.59      41797.373      1394843.4    
     85000   1299.4191     -233836.34      0             -223086.87      41695.315      1395058.2    
     85500   1306.5176     -233909.21      0             -223101.01      41200.259      1395272.2    
     86000   1298.7963     -233877.7       0             -223133.38      41213.646      1395485.4    
     86500   1298.1504     -233914.38      0             -223175.41      41032.536      1395697.8    
     87000   1292.5799     -233908.94      0             -223216.05      41082.932      1395909.4    
     87500   1300.1891     -233999.67      0             -223243.83      40406.82       1396120.1    
     88000   1292.7886     -233946.3       0             -223251.68      40749.131      1396329.9    
     88500   1296.4115     -233961.08      0             -223236.49      40576.259      1396539      
     89000   1305.2338     -234000.74      0             -223203.17      40429.377      1396747.1    
     89500   1299.143      -233906.49      0             -223159.3       40528.385      1396954.5    
     90000   1301.0031     -233879.05      0             -223116.48      40745.849      1397161      
     90500   1303.2791     -233866.29      0             -223084.89      40683.179      1397366.8    
     91000   1304.5085     -233865.09      0             -223073.52      40525.346      1397571.7    
     91500   1305.6359     -233885.5       0             -223084.6       40419.694      1397776      
     92000   1305.4508     -233914.61      0             -223115.24      40322.767      1397979.5    
     92500   1303.3225     -233937.71      0             -223155.95      40091.167      1398182.2    
     93000   1295.8851     -233916.29      0             -223196.06      40006.047      1398384.2    
     93500   1300.5715     -233983.3       0             -223224.3       39645.987      1398585.4    
     94000   1298.7995     -233978.4       0             -223234.05      39555.429      1398785.9    
     94500   1292.1385     -233911.32      0             -223222.07      39847.751      1398985.6    
     95000   1299.6779     -233942.72      0             -223191.11      39626.963      1399184.6    
     95500   1300.0518     -233904.25      0             -223149.55      39824.015      1399382.8    
     96000   1303.0241     -233886.64      0             -223107.35      39869.487      1399580.4    
     96500   1301.3752     -233841.59      0             -223075.94      39845.024      1399777.3    
     97000   1302.0387     -233834.12      0             -223062.98      39877.947      1399973.6    
     97500   1296.887      -233800.08      0             -223071.56      39896.541      1400169.3    
     98000   1302.5726     -233875.07      0             -223099.52      39601.089      1400364.3    
     98500   1302.5623     -233913.86      0             -223138.38      39397.765      1400558.8    
     99000   1295.4368     -233894.3       0             -223177.77      39412.686      1400752.6    
     99500   1296.1101     -233929.16      0             -223207.06      38803.375      1400945.8    
    100000   1293.4785     -233918.61      0             -223218.28      39050.7        1401138.3    
    100500   1294.7197     -233918.3       0             -223207.71      38861.913      1401330.3    
    101000   1298.2664     -233918.19      0             -223178.25      38919.362      1401521.7    
    101500   1303.9738     -233924.39      0             -223137.24      38702.776      1401712.5    
    102000   1302.028      -233865.74      0             -223094.69      39152.389      1401902.7    
    102500   1308.2075     -233884.17      0             -223061.99      38701.653      1402092.5    
    103000   1306.6262     -233856.31      0             -223047.22      38912.622      1402281.8    
    103500   1305.8183     -233855.32      0             -223052.91      38884.509      1402470.5    
    104000   1304.4621     -233869.38      0             -223078.19      38496.191      1402658.8    
    104500   1299.317      -233864.74      0             -223116.11      38460.572      1402846.7    
    105000   1298.6051     -233898.38      0             -223155.64      38367.585      1403034      
    105500   1293.8248     -233888.97      0             -223185.78      38214.327      1403220.9    
    106000   1293.0491     -233896.8       0             -223200.03      38213.261      1403407.3    
    106500   1295.1354     -233906.93      0             -223192.9       38202.789      1403593.2    
    107000   1295.1144     -233880.33      0             -223166.47      38310.973      1403778.7    
    107500   1298.4576     -233869.51      0             -223128         38213.613      1403963.7    
    108000   1299.3906     -233836.39      0             -223087.15      38335.329      1404148.3    
    108500   1307.5184     -233870.15      0             -223053.67      38129.103      1404332.6    
    109000   1310.002      -233872.85      0             -223035.83      37807.063      1404516.4    
    109500   1304.1986     -233827.17      0             -223038.16      37945.673      1404699.9    
    110000   1300.9974     -233822.98      0             -223060.45      37975.086      1404883      
    110500   1297.0747     -233825.06      0             -223094.98      37845.281      1405065.8    
    111000   1300.2137     -233888.88      0             -223132.83      37670.738      1405248.2    
    111500   1298.0355     -233901.19      0             -223163.16      37267.085      1405430.2    
    112000   1297.5847     -233912.31      0             -223178.01      37362.665      1405611.9    
    112500   1295.3212     -233889.3       0             -223173.73      37523.485      1405793.2    
    113000   1296.6069     -233877.06      0             -223150.85      37292.865      1405974.1    
    113500   1303.5531     -233899         0             -223115.33      37417.881      1406154.7    
    114000   1304.8737     -233870.3       0             -223075.71      37188.798      1406335      
    114500   1310.4697     -233882.4       0             -223041.51      37190.743      1406515      
    115000   1302.7605     -233799.52      0             -223022.41      37648.56       1406694.7    
    115500   1298.1392     -233760.65      0             -223021.77      37522.935      1406874.1    
    116000   1302.6925     -233816.55      0             -223040         37175.991      1407053.2    
    116500   1298.0576     -233810.11      0             -223071.9       37172.22       1407232      
    117000   1295.3675     -233825.17      0             -223109.22      37141.855      1407410.6    
    117500   1291.8878     -233827.89      0             -223140.73      36973.493      1407588.8    
    118000   1294.2207     -233865.15      0             -223158.69      36737.991      1407766.8    
    118500   1293.1318     -233854.6       0             -223157.14      36639.529      1407944.5    
    119000   1295.7008     -233854.79      0             -223136.08      36716.562      1408121.9    
    119500   1303.9526     -233887.33      0             -223100.36      36630.156      1408299      
    120000   1299.693      -233813.17      0             -223061.44      36831.855      1408475.8    
    120500   1302.7411     -233804.55      0             -223027.6       36815.49       1408652.4    
    121000   1299.2317     -233756.85      0             -223008.93      36846.822      1408828.7    
    121500   1304.0439     -233797.74      0             -223010.01      36667.635      1409004.8    
    122000   1304.0225     -233817.16      0             -223029.61      36587.758      1409180.7    
    122500   1292.9943     -233757.51      0             -223061.19      36559.622      1409356.4    
    123000   1299.1122     -233843.54      0             -223096.61      36358.958      1409531.8    
    123500   1295.7484     -233845.34      0             -223126.24      36162.931      1409706.9    
    124000   1293.1796     -233838.75      0             -223140.9       35868.253      1409881.8    
    124500   1290.4053     -233811.59      0             -223136.69      36228.354      1410056.5    
    125000   1300.2958     -233870.64      0             -223113.92      35857.095      1410230.9    
    125500   1298.9465     -233824.35      0             -223078.79      36143.516      1410405      
    126000   1303.6459     -233824.78      0             -223040.35      36038.295      1410578.9    
    126500   1305.1501     -233805.58      0             -223008.7       35882.396      1410752.6    
    127000   1300.1968     -233747.08      0             -222991.17      36295.799      1410926      
    127500   1304.9606     -233788.36      0             -222993.05      35884.185      1411099.3    
    128000   1302.8046     -233790.53      0             -223013.05      35881.58       1411272.4    
    128500   1297.3336     -233777.04      0             -223044.83      35901.981      1411445.3    
    129000   1296.2333     -233803.41      0             -223080.3       35540.015      1411617.9    
    129500   1295.8216     -233828.34      0             -223108.63      35437.272      1411790.3    
    130000   1301.4098     -233888.36      0             -223122.42      35302.486      1411962.5    
    130500   1296.9131     -233846.72      0             -223117.99      35226.144      1412134.4    
    131000   1297.198      -233826.38      0             -223095.28      35458.921      1412306.2    
    131500   1299.4662     -233809.46      0             -223059.6       35372.994      1412477.6    
    132000   1297.2503     -233753.31      0             -223021.78      35503.996      1412648.9    
    132500   1303.4694     -233774.06      0             -222991.09      35435.835      1412820      
    133000   1304.5651     -233766.82      0             -222974.78      35490.649      1412990.8    
    133500   1305.7538     -233778.75      0             -222976.87      35173.502      1413161.5    
    134000   1302.9825     -233774.35      0             -222995.4       35260.327      1413332      
    134500   1304.8551     -233819.57      0             -223025.13      35092.083      1413502.3    
    135000   1291.1887     -233739.48      0             -223058.1       35090.654      1413672.4    
    135500   1294.9224     -233797.96      0             -223085.69      34914.949      1413842.3    
    136000   1293.5759     -233801.76      0             -223100.62      34704.419      1414012      
    136500   1293.3815     -233797.91      0             -223098.39      34747.465      1414181.4    
    137000   1299.887      -233832.1       0             -223078.76      34692.218      1414350.7    
    137500   1300.1313     -233801.32      0             -223045.96      34643.634      1414519.7    
    138000   1295.4196     -233724.97      0             -223008.59      34964.004      1414688.5    
    138500   1302.3052     -233749.37      0             -222976.03      34799.435      1414857.1    
    139000   1309.5426     -233789.41      0             -222956.19      34445.662      1415025.6    
    139500   1302.1834     -233726.65      0             -222954.31      34881.613      1415193.9    
    140000   1304.2123     -233759.31      0             -222970.19      34727.763      1415362      
    140500   1306.2254     -233804.19      0             -222998.41      34403.4        1415529.9    
    141000   1298.1364     -233771.22      0             -223032.36      34452.061      1415697.6    
    141500   1295.9144     -233783.24      0             -223062.76      34219.736      1415865.2    
    142000   1293.8735     -233784.77      0             -223081.17      34432.817      1416032.5    
    142500   1294.772      -233793.7       0             -223082.68      34041.055      1416199.6    
    143000   1301.0253     -233828         0             -223065.24      33872.701      1416366.5    
    143500   1292.6266     -233726.63      0             -223033.35      34311.394      1416533.2    
    144000   1301.7505     -233764.23      0             -222995.48      34072.141      1416699.7    
    144500   1305.5992     -233761.63      0             -222961.03      34028.871      1416866      
    145000   1307.2587     -233753.46      0             -222939.14      34074.399      1417032.2    
    145500   1308.556      -233759.98      0             -222934.92      34166.556      1417198.1    
    146000   1305.866      -233752.18      0             -222949.37      34124.518      1417363.9    
    146500   1300.4123     -233736.15      0             -222978.46      33782.449      1417529.6    
    147000   1302.4376     -233787.63      0             -223013.19      33567.898      1417695      
    147500   1298.0819     -233782         0             -223043.59      33505.391      1417860.3    
    148000   1294.6669     -233772.29      0             -223062.13      33639.087      1418025.3    
    148500   1296.0683     -233784.15      0             -223062.4       33472.338      1418190.2    
    149000   1292.6011     -233737.94      0             -223044.87      33323.623      1418354.8    
    149500   1296.7849     -233741.03      0             -223013.36      33446.928      1418519.3    
    150000   1303.0167     -233755.29      0             -222976.06      33513.2        1418683.5    
    150500   1305.2184     -233739.94      0             -222942.49      33416.882      1418847.6    
    151000   1298.9391     -233666.66      0             -222921.17      33773.673      1419011.5    
    151500   1303.6929     -233701.52      0             -222916.69      33547.183      1419175.3    
    152000   1305.4721     -233729.28      0             -222929.73      33315.82       1419338.9    
    152500   1304.4948     -233748.4       0             -222956.94      33256.849      1419502.3    
    153000   1297.2084     -233721.02      0             -222989.84      33182.303      1419665.6    
    153500   1297.0971     -233750.13      0             -223019.87      33080.335      1419828.7    
    154000   1294.6913     -233749.35      0             -223038.99      33060.681      1419991.6    
    154500   1295.3287     -233755.92      0             -223040.29      32846.428      1420154.3    
    155000   1289.8956     -233694.39      0             -223023.7       32984.577      1420316.8    
    155500   1295.7354     -233711.76      0             -222992.76      32862.955      1420479.1    
    156000   1299.7893     -233709.51      0             -222956.97      32851.156      1420641.2    
    156500   1303.3645     -233707.5       0             -222925.39      33121.802      1420803.1    
    157000   1304.1431     -233693.75      0             -222905.2       32897.26       1420964.9    
    157500   1300.717      -233661.34      0             -222901.13      33032.664      1421126.5    
    158000   1297.3342     -233646.18      0             -222913.95      32966.729      1421288      
    158500   1299.5905     -233690.59      0             -222939.7       32889.897      1421449.3    
    159000   1298.2065     -233711.4       0             -222971.96      32580.502      1421610.4    
    159500   1299.9148     -233753.72      0             -223000.15      32174.73       1421771.4    
    160000   1294.6747     -233728.21      0             -223017.99      32582.761      1421932.2    
    160500   1297.5365     -233753.89      0             -223019.99      32296.336      1422092.8    
    161000   1298.7959     -233749.16      0             -223004.84      32298.41       1422253.2    
    161500   1296.5398     -233701.08      0             -222975.43      32442.429      1422413.4    
    162000   1297.8833     -233675.93      0             -222939.16      32214.401      1422573.5    
    162500   1299.2137     -233654.37      0             -222906.6       32504.034      1422733.3    
    163000   1303.4407     -233668.23      0             -222885.49      32375.903      1422893.1    
    163500   1308.4107     -233705.22      0             -222881.37      32155.018      1423052.6    
    164000   1301.9525     -233664.87      0             -222894.45      32321.943      1423212.1    
    164500   1302.1701     -233692.84      0             -222920.61      32140.548      1423371.3    
    165000   1301.9845     -233723.42      0             -222952.73      31825.05       1423530.4    
    165500   1296.5973     -233707.33      0             -222981.2       31695.585      1423689.3    
    166000   1290.1951     -233671.77      0             -222998.61      32071.926      1423848.1    
    166500   1291.0771     -233679.88      0             -222999.41      31680.982      1424006.6    
    167000   1292.9286     -233677.47      0             -222981.7       31842.772      1424165      
    167500   1296.5481     -233676.06      0             -222950.34      31885.619      1424323.2    
    168000   1296.8125     -233642.09      0             -222914.18      31831.723      1424481.2    
    168500   1300.8747     -233643.99      0             -222882.47      31831.937      1424639      
    169000   1301.5063     -233628.48      0             -222861.75      31909.616      1424796.7    
    169500   1302.1452     -233629.5       0             -222857.48      31908.215      1424954.3    
    170000   1309.0153     -233699.79      0             -222870.93      31483.611      1425111.7    
    170500   1304.3432     -233688.1       0             -222897.9       31634.844      1425268.9    
    171000   1296.6726     -233657         0             -222930.25      31640.649      1425426      
    171500   1297.3959     -233691.58      0             -222958.85      31217.471      1425583      
    172000   1293.6477     -233677.16      0             -222975.44      31253.148      1425739.8    
    172500   1292.8998     -233671.68      0             -222976.14      31299.937      1425896.3    
    173000   1293.0603     -233657.36      0             -222960.49      31410.352      1426052.8    
    173500   1297.4309     -233665.01      0             -222931.99      31223.935      1426209      
    174000   1305.8209     -233699.71      0             -222897.28      31083.57       1426365.1    
    174500   1299.5393     -233616.14      0             -222865.68      31231.352      1426521      
    175000   1308.261      -233668.41      0             -222845.8       31102.726      1426676.8    
    175500   1303.0256     -233621.41      0             -222842.1       31225.234      1426832.5    
    176000   1298.4171     -233595.67      0             -222854.49      31149.863      1426988      
    176500   1299.5537     -233629         0             -222878.41      31098.761      1427143.4    
    177000   1299.5662     -233657.76      0             -222907.08      31098.734      1427298.7    
    177500   1297.9303     -233668.73      0             -222931.58      30911.677      1427453.7    
    178000   1294.4955     -233654.45      0             -222945.71      30730.788      1427608.7    
    178500   1300.1027     -233699.82      0             -222944.7       30474.532      1427763.4    
    179000   1302.2892     -233702.35      0             -222929.13      30499.472      1427918      
    179500   1299.5986     -233655.25      0             -222904.3       30484.88       1428072.4    
    180000   1302.1045     -233647.2       0             -222875.52      30709.65       1428226.7    
    180500   1304.8189     -233644.48      0             -222850.34      30541.611      1428380.8    
    181000   1302.7734     -233612.12      0             -222834.9       30923.954      1428534.8    
    181500   1306.1129     -233637.52      0             -222832.67      30397.511      1428688.6    
    182000   1300.1017     -233599.93      0             -222844.81      30697.658      1428842.3    
    182500   1299.028      -233612.02      0             -222865.78      30450.677      1428995.9    
    183000   1301.5824     -233657.94      0             -222890.58      30297.452      1429149.3    
    183500   1303.4338     -233694.65      0             -222911.97      30021.599      1429302.6    
    184000   1297.6971     -233659.88      0             -222924.65      30113.187      1429455.7    
    184500   1299.3794     -233672.32      0             -222923.18      30287.689      1429608.6    
    185000   1293.7905     -233610.93      0             -222908.03      30520.783      1429761.4    
    185500   1300.723      -233643         0             -222882.74      30208.513      1429914.1    
    186000   1301.0878     -233617.51      0             -222854.23      30120.755      1430066.5    
    186500   1300.359      -233586.07      0             -222828.82      30213.5        1430218.9    
    187000   1303.6598     -233597.05      0             -222812.5       30030.564      1430371.1    
    187500   1300.8114     -233570.24      0             -222809.25      30235.332      1430523.2    
    188000   1304.3407     -233609.8       0             -222819.61      30117.016      1430675.2    
    188500   1305.3738     -233639.74      0             -222841         29926.646      1430827      
    189000   1299.3779     -233616.37      0             -222867.24      29933.373      1430978.8    
    189500   1294.4412     -233598.44      0             -222890.15      29868.927      1431130.3    
    190000   1295.1193     -233617.78      0             -222903.88      29706.724      1431281.8    
    190500   1293.5138     -233604.27      0             -222903.65      29969.815      1431433      
    191000   1297.2972     -233620.71      0             -222888.79      29471.493      1431584.2    
    191500   1298.3365     -233603.09      0             -222862.57      29616.393      1431735.2    
    192000   1302.5824     -233608.25      0             -222832.61      29698.46       1431886      
    192500   1306.0461     -233610.95      0             -222806.66      29584.982      1432036.7    
    193000   1302.6587     -233566.28      0             -222790.01      29893.33       1432187.2    
    193500   1303.1693     -233567.64      0             -222787.14      29621.799      1432337.7    
    194000   1305.5088     -233598.26      0             -222798.41      29289.113      1432488      
    194500   1295.5382     -233537.55      0             -222820.19      29671.302      1432638.2    
    195000   1297.2711     -233578.27      0             -222846.57      29539.89       1432788.3    
    195500   1297.7245     -233604.23      0             -222868.77      29564.616      1432938.2    
    196000   1296.817      -233608.76      0             -222880.81      29214.397      1433088      
    196500   1294.042      -233584.26      0             -222879.27      29070.866      1433237.6    
    197000   1294.7137     -233574.72      0             -222864.17      29166.456      1433387.1    
    197500   1296.4737     -233563.06      0             -222837.96      29181.2        1433536.4    
    198000   1298.699      -233551.49      0             -222807.98      28973.967      1433685.6    
    198500   1306.8004     -233591.59      0             -222781.06      28982.975      1433834.6    
    199000   1302.1126     -233536.89      0             -222765.14      29196.21       1433983.6    
    199500   1307.9862     -233585.01      0             -222764.67      29178.692      1434132.4    
    200000   1306.0725     -233583.79      0             -222779.28      28994.535      1434281.1    
    200500   1304.1455     -233592.14      0             -222803.57      28687.553      1434429.6    
    201000   1299.3922     -233579.58      0             -222830.34      29082.456      1434578.1    
    201500   1297.4395     -233586.13      0             -222853.03      28761.857      1434726.4    
    202000   1293.6557     -233566.76      0             -222864.97      28574.621      1434874.5    
    202500   1298.1412     -233600.82      0             -222861.92      28435.832      1435022.5    
    203000   1300.3415     -233600.25      0             -222843.15      28582.327      1435170.4    
    203500   1297.6549     -233549.18      0             -222814.3       28579.369      1435318.1    
    204000   1300.1849     -233538.26      0             -222782.45      28658.816      1435465.6    
    204500   1303.7046     -233541.52      0             -222756.6       28787.094      1435613      
    205000   1302.5922     -233517.47      0             -222741.75      28803.644      1435760.4    
    205500   1300.1802     -233497.88      0             -222742.12      28728.832      1435907.6    
    206000   1301.2431     -233520.82      0             -222756.26      28644.039      1436054.6    
    206500   1303.1761     -233560.97      0             -222780.42      28567.98       1436201.6    
    207000   1298.239      -233547.66      0             -222807.95      28441.726      1436348.4    
    207500   1293.7266     -233531.81      0             -222829.43      28316.088      1436495.1    
    208000   1297.3884     -233572.73      0             -222840.05      28233.354      1436641.7    
    208500   1295.3237     -233551.6       0             -222836.01      28435.261      1436788      
    209000   1303.6704     -233602.41      0             -222817.77      28100.082      1436934.3    
    209500   1301.2904     -233554.24      0             -222789.29      28015.156      1437080.4    
    210000   1302.6034     -233534.84      0             -222759.02      28202.513      1437226.4    
    210500   1304.7589     -233528.2       0             -222734.55      28226.114      1437372.2    
    211000   1304.4475     -233512.58      0             -222721.51      28329.58       1437518      
    211500   1302.7906     -233500.09      0             -222722.73      28146.29       1437663.6    
    212000   1300.1036     -233492.49      0             -222737.35      28127.508      1437809.2    
    212500   1300.8993     -233522.13      0             -222760.42      28141.869      1437954.6    
    213000   1295.1278     -233500.08      0             -222786.11      28050.401      1438099.9    
    213500   1300.8355     -233567.13      0             -222805.94      27668.706      1438245      
    214000   1296.128      -233537.91      0             -222815.66      27880.875      1438390      
    214500   1299.0372     -233558.27      0             -222811.96      27763.007      1438534.9    
    215000   1297.6297     -233529.66      0             -222794.99      27690.83       1438679.7    
    215500   1299.5778     -233519.5       0             -222768.72      27587.061      1438824.3    
    216000   1300.835      -233501.14      0             -222739.96      27852.057      1438968.8    
    216500   1300.8305     -233476.47      0             -222715.33      28072.523      1439113.1    
    217000   1302.2828     -233474.46      0             -222701.29      28004.035      1439257.4    
    217500   1303.5706     -233484.34      0             -222700.53      27840.365      1439401.6    
    218000   1296.0488     -233435.87      0             -222714.28      27888.572      1439545.6    
    218500   1304.5939     -233529.64      0             -222737.36      27522.917      1439689.6    
    219000   1298.1729     -233502.57      0             -222763.41      27586.276      1439833.4    
    219500   1299.1564     -233532.17      0             -222784.87      27151.078      1439977.1    
    220000   1290.9704     -233475.12      0             -222795.54      27381.542      1440120.7    
    220500   1296.5403     -233517.55      0             -222791.89      27127.495      1440264.1    
    221000   1294.2168     -233480.94      0             -222774.51      27428.684      1440407.4    
    221500   1299.3119     -233496.06      0             -222747.48      27345.858      1440550.5    
    222000   1301.7058     -233487         0             -222718.61      27075.023      1440693.5    
    222500   1303.7396     -233479.68      0             -222694.47      27449.783      1440836.4    
    223000   1306.3168     -233486.98      0             -222680.45      27282.407      1440979.2    
    223500   1303.8559     -233467.34      0             -222681.16      27320.079      1441121.9    
    224000   1300.7214     -233455.02      0             -222694.78      27360.363      1441264.5    
    224500   1296.4684     -233442.95      0             -222717.89      27178.698      1441407      
    225000   1296.0578     -233464.61      0             -222742.94      27131.452      1441549.4    
    225500   1298.4179     -233504         0             -222762.81      26774.81       1441691.6    
    226000   1298.2381     -233511.01      0             -222771.31      26659.223      1441833.8    
    226500   1296.2012     -233489.2       0             -222766.35      26849.217      1441975.7    
    227000   1295.035      -233461.97      0             -222748.77      26878.536      1442117.5    
    227500   1302.7246     -233497.71      0             -222720.89      26665.195      1442259.2    
    228000   1305.442      -233490.45      0             -222691.15      26634.09       1442400.8    
    228500   1302.2286     -233441.04      0             -222668.33      27002.777      1442542.3    
    229000   1298.814      -233401.72      0             -222657.26      26991.476      1442683.6    
    229500   1304.3005     -233449.38      0             -222659.53      26904.165      1442824.9    
    230000   1303.8111     -233459.87      0             -222674.07      26974.335      1442966      
    230500   1296.0882     -233418.86      0             -222696.94      26958.285      1443107.1    
    231000   1304.4992     -233512.99      0             -222721.49      26352.529      1443248      
    231500   1298.1203     -233479.37      0             -222740.64      26554.332      1443388.9    
    232000   1298.7566     -233492.04      0             -222748.05      26392.565      1443529.5    
    232500   1295.7082     -233461.57      0             -222742.8       26413.792      1443670.1    
    233000   1294.881      -233436.14      0             -222724.21      26608.018      1443810.6    
    233500   1298.511      -233439.14      0             -222697.18      26331.148      1443950.9    
    234000   1300.6055     -233429.11      0             -222669.82      26460.391      1444091.1    
    234500   1306.6217     -233456.57      0             -222647.52      26316.17       1444231.2    
    235000   1305.501      -233436.31      0             -222636.53      26342.025      1444371.1    
    235500   1306.2752     -233444.79      0             -222638.61      26375.846      1444511      
    236000   1300.2469     -233408.77      0             -222652.45      26512.535      1444650.8    
    236500   1303.7497     -233458.57      0             -222673.27      25963.132      1444790.5    
    237000   1295.4326     -233412.82      0             -222696.33      26359.432      1444930      
    237500   1303.5011     -233497.19      0             -222713.95      25854.657      1445069.4    
    238000   1296.2454     -233445.67      0             -222722.45      26328.954      1445208.7    
    238500   1300.0592     -233471.75      0             -222716.98      25700.256      1445347.9    
    239000   1295.3082     -233415.6       0             -222700.14      26073.569      1445486.9    
    239500   1294.1165     -233380.46      0             -222674.85      26228.912      1445625.8    
    240000   1301.4498     -233414.18      0             -222647.91      26150.879      1445764.6    
    240500   1300.3274     -233383.28      0             -222626.29      26057.945      1445903.3    
    241000   1303.8575     -233401.17      0             -222614.99      25871.184      1446041.9    
    241500   1305.0403     -233412.17      0             -222616.2       25916.453      1446180.4    
    242000   1301.2239     -233394.07      0             -222629.67      26062.353      1446318.7    
    242500   1300.6794     -233411.34      0             -222651.44      25816.47       1446457      
    243000   1300.6955     -233434.39      0             -222674.36      25740.674      1446595.2    
    243500   1295.6843     -233410.6       0             -222692.03      25766.689      1446733.3    
    244000   1292.4802     -233391.71      0             -222699.64      25784.73       1446871.2    
    244500   1297.6306     -233428.97      0             -222694.29      25592.238      1447009.1    
    245000   1297.1253     -233407.15      0             -222676.66      25816.958      1447146.8    
    245500   1296.8164     -233378.4       0             -222650.46      25535.702      1447284.3    
    246000   1304.7813     -233417.01      0             -222623.18      25647.807      1447421.8    
    246500   1306.0847     -233407.42      0             -222602.81      25432.792      1447559.2    
    247000   1301.7982     -233362.14      0             -222592.99      25472.689      1447696.5    
    247500   1297.5757     -233329.68      0             -222595.46      25771.003      1447833.6    
    248000   1300.8552     -233370.01      0             -222608.66      25573.794      1447970.7    
    248500   1302.867      -233407.41      0             -222629.41      25370.125      1448107.7    
    249000   1299.3094     -233400.83      0             -222652.27      25204.671      1448244.5    
    249500   1301.5906     -233437.88      0             -222670.45      25111.634      1448381.3    
    250000   1297.5674     -233411.52      0             -222677.36      25107.141      1448517.9    
    250500   1295.7275     -233389.76      0             -222670.83      25523.908      1448654.4    
    251000   1299.1533     -233398.81      0             -222651.54      25354.836      1448790.8    
    251500   1299.62       -233375.81      0             -222624.67      25014.006      1448927      
    252000   1298.6689     -233341.52      0             -222598.26      25239.469      1449063.2    
    252500   1302.2368     -233350.35      0             -222577.57      25396.226      1449199.2    
    253000   1304.4309     -233358.48      0             -222567.55      25090.995      1449335.2    
    253500   1301.4926     -233336.73      0             -222570.11      25362.808      1449471      
    254000   1303.0596     -233364.74      0             -222585.15      25095.129      1449606.8    
    254500   1304.3851     -233398.48      0             -222607.93      24889.318      1449742.5    
    255000   1296.8711     -233360.82      0             -222632.42      24928.232      1449878      
    255500   1296.7058     -233378.05      0             -222651.02      24934.984      1450013.5    
    256000   1294.7152     -233369.93      0             -222659.37      24825.149      1450148.8    
    256500   1298.4279     -233393.44      0             -222652.17      24739.188      1450284      
    257000   1294.2875     -233336.45      0             -222629.43      24878.84       1450419      
    257500   1301.3298     -233364.05      0             -222598.77      24841.829      1450554      
    258000   1306.9245     -233383.54      0             -222571.98      24515.928      1450688.8    
    258500   1300.2545     -233312.43      0             -222556.05      24817.324      1450823.5    
    259000   1295.215      -233265.79      0             -222551.1       25039.418      1450958.2    
    259500   1303.3254     -233339.38      0             -222557.59      24810.227      1451092.7    
    260000   1299.0363     -233327.36      0             -222581.06      24799.444      1451227.2    
    260500   1297.4689     -233361         0             -222627.66      24464.753      1451361.5    
    261000   1294.0376     -233375.86      0             -222670.91      24620.96       1451495.7    
    261500   1290.828      -233362.61      0             -222684.21      24403.017      1451629.8    
    262000   1293.2573     -233369.31      0             -222670.81      24486.716      1451763.8    
    262500   1299.3027     -233390.44      0             -222641.93      24475.872      1451897.6    
    263000   1301.877      -233386.7       0             -222616.9       24293.925      1452031.3    
    263500   1300.3262     -233358.29      0             -222601.31      24401.655      1452164.9    
    264000   1301.9559     -233359.02      0             -222588.56      24172.953      1452298.4    
    264500   1299.576      -233325.67      0             -222574.9       24508.79       1452431.8    
    265000   1298.5356     -233302.61      0             -222560.45      24467.614      1452565      
    265500   1305.676      -233348.4       0             -222547.17      24151.929      1452698.2    
    266000   1306.1245     -233340.71      0             -222535.77      24375.585      1452831.3    
    266500   1303.1528     -233304.57      0             -222524.21      24249.873      1452964.2    
    267000   1303.6336     -233298.52      0             -222514.18      24355.097      1453097.1    
    267500   1302.0887     -233282.37      0             -222510.82      24491.417      1453229.9    
    268000   1304.3892     -233311.98      0             -222521.4       24160.942      1453362.7    
    268500   1301.3559     -233314.52      0             -222549.03      24055.05       1453495.3    
    269000   1297.7122     -233318.26      0             -222582.91      24059.947      1453627.8    
    269500   1292.5679     -233301.41      0             -222608.61      24063.967      1453760.3    
    270000   1300.0283     -233373.71      0             -222619.2       23743.098      1453892.6    
    270500   1297.1456     -233341.82      0             -222611.16      23688.777      1454024.7    
    271000   1295.2272     -233291.52      0             -222576.73      23950.039      1454156.8    
    271500   1300.2419     -233283.81      0             -222527.53      23848.911      1454288.8    
    272000   1298.8812     -233249.56      0             -222504.54      24192.354      1454420.6    
    272500   1304.1519     -233291.92      0             -222503.29      24005.249      1454552.4    
    273000   1305.596      -233312.62      0             -222512.05      23695.248      1454684.1    
    273500   1295.8422     -233247.25      0             -222527.37      23984.465      1454815.7    
    274000   1300.0622     -233301.48      0             -222546.69      23882.889      1454947.2    
    274500   1301.8333     -233335.29      0             -222565.85      23586.012      1455078.6    
    275000   1294.1036     -233287.97      0             -222582.47      23560.542      1455209.9    
    275500   1301.351      -233360.9       0             -222595.45      23473.168      1455341.1    
    276000   1293.7617     -233300.5       0             -222597.83      23536.133      1455472.1    
    276500   1296.6106     -233302.26      0             -222576.02      23482.954      1455603.1    
    277000   1297.8399     -233271.78      0             -222535.37      23616.683      1455733.9    
    277500   1304.1423     -233288.48      0             -222499.93      23563.316      1455864.7    
    278000   1305.5921     -233282.24      0             -222481.7       23655.878      1455995.3    
    278500   1301.0734     -233239.25      0             -222476.09      23801.76       1456125.9    
    279000   1305.7978     -233284.88      0             -222482.64      23396.398      1456256.4    
    279500   1302.7993     -233279.06      0             -222501.63      23398.66       1456386.8    
    280000   1297.2767     -233265.97      0             -222534.22      23267.083      1456517.1    
    280500   1294.6077     -233283.98      0             -222574.31      23283.067      1456647.3    
    281000   1293.0216     -233299.19      0             -222602.65      23115.194      1456777.4    
    281500   1294.1169     -233312.47      0             -222606.87      23008.17       1456907.4    
    282000   1294.187      -233280.38      0             -222574.2       23240.679      1457037.2    
    282500   1301.8901     -233275.88      0             -222505.97      23267.153      1457166.9    
    283000   1302.133      -233253.12      0             -222481.2       23269.856      1457296.5    
    283500   1300.0223     -233230.77      0             -222476.31      23222.657      1457426.1    
    284000   1304.5953     -233270.14      0             -222477.85      23046.173      1457555.6    
    284500   1298.5263     -233226.71      0             -222484.63      23363.198      1457684.9    
    285000   1302.8171     -233273.32      0             -222495.74      23063.998      1457814.2    
    285500   1295.3643     -233225.45      0             -222509.52      23211.825      1457943.4    
    286000   1296.6849     -233248.69      0             -222521.84      22911.471      1458072.4    
    286500   1295.7645     -233247.79      0             -222528.55      22991.321      1458201.4    
    287000   1295.3834     -233240.22      0             -222524.13      23056.237      1458330.3    
    287500   1299.1679     -233249.5       0             -222502.11      22835.937      1458459.1    
    288000   1298.0267     -233203.75      0             -222465.8       23162.746      1458587.8    
    288500   1306.5684     -233243.15      0             -222434.54      22897.922      1458716.4    
    289000   1306.4751     -233228.74      0             -222420.9       22975.073      1458844.9    
    289500   1303.6054     -233208.81      0             -222424.71      23170.106      1458973.4    
    290000   1300.6002     -233204.59      0             -222445.35      22976.675      1459101.8    
    290500   1295.349      -233199.92      0             -222484.12      22793.078      1459230.1    
    291000   1301.8219     -233299.73      0             -222530.38      22444.222      1459358.3    
    291500   1292.0756     -233242.97      0             -222554.25      22723.625      1459486.4    
    292000   1295.3684     -233267.55      0             -222551.58      22306.633      1459614.4    
    292500   1297.0829     -233267.67      0             -222537.52      22426.008      1459742.3    
    293000   1293.4158     -233218.45      0             -222518.64      22705.74       1459870      
    293500   1298.7894     -233239.42      0             -222495.15      22439.737      1459997.6    
    294000   1299.0247     -233216.35      0             -222470.14      22608.243      1460125.1    
    294500   1304.3572     -233236.95      0             -222446.63      22573.823      1460252.6    
    295000   1300.6361     -233190.26      0             -222430.72      22708.265      1460379.9    
    295500   1303.3097     -233204.33      0             -222422.67      22506.985      1460507.1    
    296000   1297.743      -233158         0             -222422.39      22719.613      1460634.3    
    296500   1300.6702     -233190.35      0             -222430.53      22441.991      1460761.5    
    297000   1296.9728     -233187.9       0             -222458.67      22455.891      1460888.5    
    297500   1297.5081     -233239.52      0             -222505.86      22197.163      1461015.4    
    298000   1294.5775     -233246.61      0             -222537.19      22115.887      1461142.3    
    298500   1292.5059     -233232.93      0             -222540.65      22136.158      1461269      
    299000   1293.3877     -233216.81      0             -222517.23      22232.576      1461395.6    
    299500   1300.164      -233230.36      0             -222474.73      22282.985      1461522.1    
    300000   1298.1318     -233182.37      0             -222443.55      22503.295      1461648.5    
    300500   1300.2895     -233186.31      0             -222429.64      22269.268      1461774.8    
    301000   1293.9847     -233128.31      0             -222423.79      22169.516      1461901      
    301500   1303.199      -233201.46      0             -222420.72      21886.357      1462027.1    
    302000   1299.3723     -233170.19      0             -222421.11      22120.501      1462153.1    
    302500   1302.9267     -233201.01      0             -222422.53      22104.806      1462279.1    
    303000   1302.8105     -233202.08      0             -222424.55      21935.746      1462404.9    
    303500   1297.2959     -233159.68      0             -222427.77      22168.446      1462530.7    
    304000   1302.411      -233203.76      0             -222429.53      21874.215      1462656.3    
    304500   1299.0569     -233174.7       0             -222428.23      22010.659      1462781.9    
    305000   1299.3471     -233171.52      0             -222422.65      22272.918      1462907.4    
    305500   1302.106      -233182.52      0             -222410.82      21868.045      1463032.8    
    306000   1302.8465     -233172.94      0             -222395.12      21896.213      1463158.1    
    306500   1300.5355     -233137.8       0             -222379.1       22032.491      1463283.3    
    307000   1303.5092     -233149.3       0             -222365.99      21890.769      1463408.5    
    307500   1297.678      -233094.15      0             -222359.08      21983.344      1463533.5    
    308000   1302.7706     -233139.84      0             -222362.64      21755.855      1463658.5    
    308500   1298.0863     -233123.66      0             -222385.21      21979.426      1463783.5    
    309000   1298.17       -233163.95      0             -222424.82      21656.118      1463908.3    
    309500   1294.8849     -233171.44      0             -222459.48      21559.033      1464033.1    
    310000   1293.4864     -233174.39      0             -222474         21549.243      1464157.7    
    310500   1294.5733     -233175.66      0             -222466.28      21635.48       1464282.2    
    311000   1294.9346     -233146.66      0             -222434.29      21566.269      1464406.6    
    311500   1302.5872     -233166.69      0             -222391.01      21642.442      1464530.9    
    312000   1295.1635     -233083.14      0             -222368.88      21998.783      1464655.1    
    312500   1303.4075     -233148.02      0             -222365.55      21509.274      1464779.3    
    313000   1298.1188     -233107.82      0             -222369.11      21791.17       1464903.4    
    313500   1300.4936     -233133.82      0             -222375.47      21585.718      1465027.4    
    314000   1298.116      -233123         0             -222384.31      21523.512      1465151.3    
    314500   1302.1979     -233168.72      0             -222396.27      21648.952      1465275.1    
    315000   1291.9512     -233097.34      0             -222409.65      21633.939      1465398.8    
    315500   1300.0154     -233176.71      0             -222422.3       21229.407      1465522.4    
    316000   1298.365      -233169.36      0             -222428.61      21295.052      1465646      
    316500   1301.8407     -233186.95      0             -222417.44      21047.378      1465769.4    
    317000   1298.3087     -233124.75      0             -222384.47      21343.778      1465892.7    
    317500   1298.6979     -233090.29      0             -222346.78      21583.488      1466015.9    
    318000   1298.869      -233068.99      0             -222324.07      21453.692      1466139.1    
    318500   1305.6725     -233118.38      0             -222317.18      21150.026      1466262.2    
    319000   1304.0273     -233110.33      0             -222322.74      21172.53       1466385.1    
    319500   1303.1362     -233122.49      0             -222342.27      21008.292      1466508      
    320000   1304.0116     -233165.35      0             -222377.89      20727.708      1466630.9    
    320500   1293.7134     -233126.94      0             -222424.67      21044.439      1466753.6    
    321000   1293.7174     -233155.75      0             -222453.45      20683.515      1466876.2    
    321500   1293.5471     -233154.2       0             -222453.3       20798.131      1466998.6    
    322000   1298.9033     -233174.9       0             -222429.7       20673.891      1467121      
    322500   1299.0818     -233151.03      0             -222404.35      20757.989      1467243.2    
    323000   1295.7051     -233108.39      0             -222389.64      21007.192      1467365.3    
    323500   1293.3793     -233073.67      0             -222374.16      20933.487      1467487.4    
    324000   1299.079      -233100.22      0             -222353.56      20812.396      1467609.3    
    324500   1301.5396     -233098.27      0             -222331.25      20984.676      1467731.2    
    325000   1299.2369     -233059.47      0             -222311.51      20708.843      1467852.9    
    325500   1301.1724     -233061.29      0             -222297.32      21164.165      1467974.6    
    326000   1308.7055     -233118.04      0             -222291.75      20921.826      1468096.2    
    326500   1302.985      -233075.64      0             -222296.67      20975.905      1468217.8    
    327000   1305.7444     -233121.07      0             -222319.28      20486.367      1468339.2    
    327500   1302.5571     -233139.33      0             -222363.9       20555.576      1468460.6    
    328000   1298.3714     -233143.08      0             -222402.27      20332.978      1468581.9    
    328500   1295.2671     -233129.51      0             -222414.39      20368.389      1468703      
    329000   1295.8582     -233120.87      0             -222400.85      20326.14       1468824.1    
    329500   1290.2151     -233039.97      0             -222366.64      20576.977      1468945      
    330000   1299.6039     -233083.1       0             -222332.11      20380.417      1469065.8    
    330500   1303.908      -233103.04      0             -222316.43      20468.744      1469186.6    
    331000   1297.2107     -233041.64      0             -222310.44      20685.452      1469307.2    
    331500   1303.463      -233090.46      0             -222307.54      20391.174      1469427.8    
    332000   1299.7452     -233058.6       0             -222306.43      20584.07       1469548.2    
    332500   1298.93       -233050.47      0             -222305.05      20489.491      1469668.6    
    333000   1299.2753     -233052.03      0             -222303.75      20445.056      1469789      
    333500   1299.0374     -233045.71      0             -222299.4       20491.068      1469909.2    
    334000   1303.7892     -233075.7       0             -222290.08      20399.01       1470029.4    
    334500   1300.112      -233033.33      0             -222278.13      20660.959      1470149.5    
    335000   1301.1573     -233030.84      0             -222266.99      20442.829      1470269.5    
    335500   1304.7459     -233054.3       0             -222260.76      20363.807      1470389.5    
    336000   1306.0671     -233068.08      0             -222263.61      20328.955      1470509.3    
    336500   1299.9405     -233032.84      0             -222279.06      20393.632      1470629.2    
    337000   1300.04       -233062.5       0             -222307.89      20260.538      1470748.9    
    337500   1291.3969     -233022.99      0             -222339.88      20350.112      1470868.6    
    338000   1297.3935     -233093.51      0             -222360.79      20031.806      1470988.1    
    338500   1299.0363     -233109.69      0             -222363.39      19779.627      1471107.6    
    339000   1288.735      -232998.69      0             -222337.6       20381.87       1471226.9    
    339500   1298.3625     -233020.39      0             -222279.66      20335.738      1471346.2    
    340000   1303.8651     -233032.29      0             -222246.04      20236.447      1471465.4    
    340500   1301.8341     -233009.82      0             -222240.37      20183.028      1471584.5    
    341000   1302.3492     -233020.07      0             -222246.36      20100.637      1471703.6    
    341500   1294.0125     -232965.16      0             -222260.41      20332.973      1471822.6    
    342000   1303.989      -233067.82      0             -222280.55      19740.542      1471941.5    
    342500   1301.7538     -233071.67      0             -222302.89      19920.348      1472060.4    
    343000   1296.2808     -233046.77      0             -222323.26      19804.576      1472179.1    
    343500   1291.1538     -233018.66      0             -222337.57      19778.509      1472297.8    
    344000   1290.9062     -233017.85      0             -222338.8       19775.444      1472416.3    
    344500   1298.6008     -233053.15      0             -222310.45      19641.182      1472534.8    
    345000   1301.3832     -233027.06      0             -222261.35      19826.378      1472653.1    
    345500   1307.1967     -233041.86      0             -222228.05      19622.733      1472771.4    
    346000   1304.7989     -233008.35      0             -222214.38      19832.661      1472889.5    
    346500   1302.9902     -232993.31      0             -222214.3       19847.83       1473007.6    
    347000   1306.8513     -233036         0             -222225.05      19628.274      1473125.7    
    347500   1300.4776     -233006.64      0             -222248.41      19875.36       1473243.6    
    348000   1294.0038     -232985.84      0             -222281.17      19436.975      1473361.5    
    348500   1300.6668     -233074.09      0             -222314.3       19493.803      1473479.3    
    349000   1293.9832     -233040         0             -222335.5       19608.362      1473597      
    349500   1297.6088     -233071.24      0             -222336.74      19258.498      1473714.5    
    350000   1299.4241     -233043.79      0             -222294.28      19492.824      1473832      
    350500   1301.7648     -232999.48      0             -222230.61      19583.445      1473949.3    
    351000   1304.8242     -233000.5       0             -222206.31      19439.044      1474066.6    
    351500   1304.5836     -232990.91      0             -222198.72      19545.984      1474183.8    
    352000   1301.1291     -232965.21      0             -222201.59      19816.773      1474301      
    352500   1301.523      -232980.94      0             -222214.07      19441.222      1474418.1    
    353000   1300.0935     -232990.82      0             -222235.77      19552.92       1474535.1    
    353500   1296.9829     -232991         0             -222261.69      19399.781      1474652      
    354000   1298.7769     -233028.26      0             -222284.1       19069.712      1474768.9    
    354500   1293.5043     -232996.74      0             -222296.2       19115.079      1474885.7    
    355000   1296.3524     -233012.74      0             -222288.64      18942.811      1475002.3    
    355500   1297.7186     -232980.84      0             -222245.43      19218.283      1475118.9    
    356000   1303.9303     -232980.6       0             -222193.81      19298.724      1475235.3    
    356500   1301.8609     -232942.65      0             -222172.98      19314.811      1475351.7    
    357000   1306.8159     -232980.37      0             -222169.71      19232.967      1475468      
    357500   1302.7276     -232955.34      0             -222178.5       19240.54       1475584.3    
    358000   1300.9218     -232959.88      0             -222197.97      19166.229      1475700.5    
    358500   1295.4858     -232942.78      0             -222225.85      19478.255      1475816.6    
    359000   1295.2099     -232970.74      0             -222256.09      19174.942      1475932.6    
    359500   1291.5969     -232965.2       0             -222280.44      19367.194      1476048.5    
    360000   1292.0827     -232980.71      0             -222291.93      19132.28       1476164.4    
    360500   1292.8422     -232972         0             -222276.94      18975.303      1476280.1    
    361000   1300.0474     -232973.66      0             -222218.99      18946.197      1476395.7    
    361500   1302.5757     -232950.26      0             -222174.68      19113.52       1476511.3    
    362000   1304.0016     -232942.88      0             -222155.5       19083.561      1476626.7    
    362500   1307.6181     -232968.14      0             -222150.85      19154.35       1476742.2    
    363000   1303.6127     -232943.17      0             -222159.01      18961.636      1476857.5    
    363500   1302.1739     -232949.86      0             -222177.6       18933.766      1476972.8    
    364000   1298.9295     -232950.31      0             -222204.89      18839.036      1477088      
    364500   1296.5014     -232959.21      0             -222233.88      18606.768      1477203.2    
    365000   1299.7056     -233006.67      0             -222254.83      18433.394      1477318.2    
    365500   1293.9284     -232963.95      0             -222259.9       18346.643      1477433.1    
    366000   1297.0832     -232965.96      0             -222235.81      18686.362      1477547.9    
    366500   1300.1528     -232928.72      0             -222173.18      19069.379      1477662.7    
    367000   1299.8047     -232889.8       0             -222137.14      19005.666      1477777.4    
    367500   1304.3056     -232918.86      0             -222128.97      18817.619      1477892      
    368000   1308.2695     -232957.51      0             -222134.83      18697.523      1478006.5    
    368500   1304.8843     -232946.65      0             -222151.97      18620.921      1478121      
    369000   1302.5145     -232951.75      0             -222176.67      18530.124      1478235.4    
    369500   1297.9629     -232941.03      0             -222203.61      18458.857      1478349.8    
    370000   1294.2664     -232931.03      0             -222224.18      18424.823      1478464      
    370500   1297.1799     -232961.96      0             -222231.01      18429.915      1478578.1    
    371000   1295.2552     -232928.62      0             -222213.6       18609.589      1478692.2    
    371500   1299.4309     -232906.1       0             -222156.53      18789.948      1478806.1    
    372000   1303.9648     -232901.95      0             -222114.87      18686.508      1478920      
    372500   1302.1158     -232874.48      0             -222102.7       18862.904      1479033.9    
    373000   1305.2615     -232905.47      0             -222107.67      18529.468      1479147.6    
    373500   1301.2251     -232891.62      0             -222127.21      18781.096      1479261.3    
    374000   1297.9769     -232894.01      0             -222156.47      18556.846      1479375      
    374500   1296.7074     -232911.46      0             -222184.43      18345.417      1479488.6    
    375000   1299.0109     -232948.82      0             -222202.73      18202.492      1479602.1    
    375500   1291.6266     -232891.81      0             -222206.81      18338.116      1479715.5    
    376000   1295.4352     -232902.38      0             -222185.86      18414.925      1479828.8    
    376500   1301.1627     -232885.09      0             -222121.2       18500.108      1479942.1    
    377000   1303.023      -232859.42      0             -222080.14      18478.183      1480055.2    
    377500   1305.6672     -232874.96      0             -222073.81      18352.428      1480168.3    
    378000   1304.2824     -232876.36      0             -222086.66      18323.908      1480281.4    
    378500   1309.0496     -232942.42      0             -222113.29      18161.449      1480394.4    
    379000   1298.3562     -232885.44      0             -222144.77      18090.408      1480507.3    
    379500   1303.7353     -232954.69      0             -222169.51      18021.504      1480620.2    
    380000   1298.1616     -232919.82      0             -222180.76      17925.549      1480732.9    
    380500   1300.4056     -232934.11      0             -222176.48      17869.799      1480845.6    
    381000   1297.9535     -232887.7       0             -222150.35      17992.605      1480958.2    
    381500   1303.7063     -232878.34      0             -222093.41      17929.757      1481070.6    
[...]
   1908000   1295.3923     -230488.56      0             -219772.4       1.2465471      1603432.3    
   1908500   1293.8582     -230505.88      0             -219802.41     -12.229585      1603432.6    
   1909000   1296.0833     -230557.84      0             -219835.96     -18.298279      1603432.9    
   1909500   1290.5196     -230526.49      0             -219850.64     -196.69611      1603433.1    
   1910000   1295.4626     -230548.13      0             -219831.39     -389.2201       1603433.4    
   1910500   1299.5813     -230528.23      0             -219777.42     -332.39384      1603433.6    
   1911000   1302.4656     -230512.99      0             -219738.32     -33.572011      1603433.7    
   1911500   1293.5918     -230422.04      0             -219720.78      287.6482       1603433.9    
   1912000   1298.7731     -230456.95      0             -219712.82      167.76432      1603434.1    
   1912500   1297.2392     -230442.34      0             -219710.9      -30.506694      1603434.3    
   1913000   1300.4769     -230472.33      0             -219714.11     -40.455051      1603434.4    
   1913500   1305.7452     -230525.33      0             -219723.53     -65.476976      1603434.6    
   1914000   1298.9125     -230489.38      0             -219744.1      -146.13718      1603434.7    
   1914500   1300.2586     -230529.12      0             -219772.7      -331.89196      1603434.9    
   1915000   1294.3255     -230506.55      0             -219799.22     -268.4831       1603435      
   1915500   1294.287      -230517.21      0             -219810.19     -308.42757      1603435      
   1916000   1296.9259     -230527.9       0             -219799.05     -356.81268      1603435.1    
   1916500   1297.7142     -230489.12      0             -219753.75     -135.78378      1603435.1    
   1917000   1304.398      -230495.25      0             -219704.59     -145.90102      1603435.1    
   1917500   1302.0811     -230455.01      0             -219683.52      100.41044      1603435.1    
   1918000   1303.0143     -230461.47      0             -219682.26      250.43509      1603435      
   1918500   1308.0238     -230514.61      0             -219693.96     -309.04007      1603435      
   1919000   1301.6901     -230485.95      0             -219717.69     -71.726938      1603435      
   1919500   1299.6166     -230499.69      0             -219748.59     -120.45246      1603435      
   1920000   1290.8665     -230453.46      0             -219774.74      169.97084      1603435      
   1920500   1296.2488     -230510.05      0             -219786.81      5.519511       1603435      
   1921000   1291.6219     -230470.72      0             -219785.75      43.226893      1603435      
   1921500   1305.5206     -230575.6       0             -219775.66     -357.19271      1603434.9    
   1922000   1293.6403     -230466.25      0             -219764.59      181.43306      1603434.9    
   1922500   1303.1002     -230536.22      0             -219756.3      -51.681804      1603434.9    
   1923000   1298.9888     -230496.48      0             -219750.57      119.41997      1603434.8    
   1923500   1300.1906     -230500.71      0             -219744.85      0.13694894     1603434.8    
   1924000   1303.217      -230519.45      0             -219738.56      223.61339      1603434.8    
   1924500   1296.6686     -230460.71      0             -219734         41.988899      1603434.9    
   1925000   1301.339      -230497.69      0             -219732.34      266.09407      1603434.9    
   1925500   1297.0736     -230464.65      0             -219734.58      483.84937      1603434.9    
   1926000   1302.4343     -230516.16      0             -219741.74     -75.886148      1603435      
   1926500   1298.5713     -230497.07      0             -219754.61      27.981723      1603435.1    
   1927000   1297.1612     -230499.41      0             -219768.62     -62.587639      1603435.1    
   1927500   1296.8769     -230505.87      0             -219777.43     -126.40732      1603435.2    
   1928000   1302.9589     -230551.49      0             -219772.73     -443.77138      1603435.2    
   1928500   1299.4946     -230501.04      0             -219750.95      52.905807      1603435.2    
   1929000   1301.5441     -230482.51      0             -219715.46      203.01127      1603435.2    
   1929500   1301.8255     -230454.93      0             -219685.55      176.16555      1603435.2    
   1930000   1308.5837     -230499.16      0             -219673.87      93.325235      1603435.3    
   1930500   1300.8001     -230444.05      0             -219683.15      33.607335      1603435.3    
   1931000   1304.9144     -230509.43      0             -219714.5       46.259526      1603435.4    
   1931500   1298.1323     -230505.8       0             -219766.97     -144.86931      1603435.6    
   1932000   1293.3867     -230498.01      0             -219798.44     -265.86011      1603435.6    
   1932500   1293.2824     -230497.39      0             -219798.69      45.922118      1603435.7    
   1933000   1295.4758     -230503.08      0             -219786.23     -252.20169      1603435.7    
   1933500   1297.356      -230496.95      0             -219764.54     -46.020356      1603435.7    
   1934000   1298.6215     -230482.54      0             -219739.67     -75.304518      1603435.7    
   1934500   1304.7635     -230510.62      0             -219716.94     -29.29892       1603435.7    
   1935000   1302.6711     -230477.6       0             -219701.23     -195.08267      1603435.8    
   1935500   1297.7223     -230429.29      0             -219693.86      121.46926      1603435.8    
   1936000   1299.5223     -230446.36      0             -219696.04      167.87737      1603435.8    
   1936500   1301.5752     -230487.43      0             -219720.12      171.62029      1603435.8    
   1937000   1298.4579     -230520.15      0             -219778.63      47.038172      1603435.8    
   1937500   1292.6237     -230508.81      0             -219815.56     -57.541824      1603435.8    
   1938000   1293.8812     -230520.68      0             -219817.02     -334.56787      1603435.8    
   1938500   1298.6616     -230538.74      0             -219795.53     -295.60651      1603435.8    
   1939000   1297.8508     -230497.89      0             -219761.4      -105.41797      1603435.7    
   1939500   1298.9293     -230476.88      0             -219731.46     -199.64216      1603435.6    
   1940000   1297.893      -230452.07      0             -219715.22      279.02102      1603435.5    
   1940500   1307.143      -230521.43      0             -219708.07      16.485182      1603435.3    
   1941000   1303.8311     -230494.7       0             -219708.73     -153.76042      1603435.2    
   1941500   1301.5586     -230482.87      0             -219715.7      -102.13793      1603435.1    
   1942000   1305.7294     -230529.42      0             -219727.75     -0.73693469     1603435      
   1942500   1299.1042     -230498.53      0             -219751.67     -286.56275      1603434.8    
   1943000   1294.4264     -230502.46      0             -219794.29     -88.525337      1603434.7    
   1943500   1292.7895     -230530.52      0             -219835.89     -294.03388      1603434.5    
   1944000   1290.8659     -230524.74      0             -219846.03     -166.12774      1603434.2    
   1944500   1292.8708     -230516.99      0             -219821.69     -248.56625      1603434      
   1945000   1298.4222     -230516.18      0             -219774.96     -194.01691      1603433.7    
   1945500   1297.7312     -230480.74      0             -219745.23     -85.296186      1603433.3    
   1946000   1301.3858     -230495.11      0             -219729.37     -242.84423      1603433      
   1946500   1303.7243     -230503.65      0             -219718.57     -102.61914      1603432.6    
   1947000   1301.2537     -230476.66      0             -219712.01      78.021361      1603432.2    
   1947500   1300.2097     -230466.47      0             -219710.46      52.432038      1603431.8    
   1948000   1297.589      -230447.85      0             -219713.52      4.6072041      1603431.5    
   1948500   1303.4879     -230506.72      0             -219723.59     -175.90984      1603431.1    
   1949000   1301.8325     -230514.37      0             -219744.93     -174.8794       1603430.7    
   1949500   1300.6248     -230531.77      0             -219772.33     -223.75229      1603430.3    
   1950000   1292.6886     -230488.94      0             -219795.14     -67.297927      1603429.9    
   1950500   1296.6119     -230530.1       0             -219803.85     -245.08473      1603429.4    
   1951000   1295.2536     -230507.33      0             -219792.32     -115.84565      1603429      
   1951500   1298.97       -230496.9       0             -219751.14      43.077813      1603428.5    
   1952000   1302.6687     -230478.81      0             -219702.46     -42.1094        1603428      
   1952500   1305.4205     -230479.21      0             -219680.1       10.630541      1603427.5    
   1953000   1307.7719     -230498.84      0             -219680.27     -122.67817      1603427.1    
   1953500   1303.4458     -230477.43      0             -219694.65     -83.736121      1603426.6    
   1954000   1304.2605     -230507.64      0             -219718.12     -349.54992      1603426.2    
   1954500   1302.4918     -230518.79      0             -219743.9      -335.03407      1603425.8    
   1955000   1298.2503     -230504.06      0             -219764.25      24.801246      1603425.4    
   1955500   1298.6735     -230518.42      0             -219775.12     -98.742323      1603424.9    
   1956000   1299.2654     -230522.84      0             -219774.64     -178.53949      1603424.5    
   1956500   1299.7916     -230518.96      0             -219766.41      22.673732      1603424.1    
   1957000   1298.3183     -230497.72      0             -219757.35      21.482523      1603423.6    
   1957500   1298.9552     -230496.74      0             -219751.11     -65.434612      1603423.2    
   1958000   1297.1913     -230477.14      0             -219746.1      -20.147811      1603422.8    
   1958500   1294.9078     -230451.06      0             -219738.91     -41.705183      1603422.3    
   1959000   1299.4325     -230479.11      0             -219729.53      82.583163      1603421.9    
   1959500   1301.6564     -230485.61      0             -219717.63     -170.75004      1603421.5    
   1960000   1298.8735     -230451.49      0             -219706.53      447.88748      1603421      
   1960500   1299.8413     -230452.08      0             -219699.12      16.274126      1603420.6    
   1961000   1301.1981     -230464.88      0             -219700.69      153.15186      1603420.2    
   1961500   1297.5178     -230452.2       0             -219718.46      242.32266      1603419.8    
   1962000   1296.9082     -230480.71      0             -219752.01     -88.235702      1603419.5    
   1962500   1293.7007     -230486.37      0             -219784.21     -18.394787      1603419.1    
   1963000   1296.4773     -230523.85      0             -219798.71     -392.06634      1603418.7    
   1963500   1295.345      -230507.25      0             -219791.49     -326.07584      1603418.3    
   1964000   1297.7759     -230496.92      0             -219761.05     -99.981852      1603417.8    
   1964500   1298.8269     -230459.92      0             -219715.35      146.74757      1603417.3    
   1965000   1299.4946     -230436.04      0             -219685.95      213.18372      1603416.8    
   1965500   1303.1818     -230461.67      0             -219681.07      82.469532      1603416.3    
   1966000   1302.8995     -230466.35      0             -219688.09     -35.355842      1603415.8    
   1966500   1298.8556     -230446.77      0             -219701.96     -172.79876      1603415.3    
   1967000   1298.4823     -230462.31      0             -219720.59     -261.97442      1603414.9    
   1967500   1302.4425     -230515.62      0             -219741.14     -336.18316      1603414.4    
   1968000   1299.2324     -230508.29      0             -219760.37     -235.78922      1603413.9    
   1968500   1297.669      -230507.79      0             -219772.8       1.853363       1603413.4    
   1969000   1296.2699     -230501.91      0             -219778.49      90.938864      1603412.9    
   1969500   1296.5315     -230502.77      0             -219777.19      33.286674      1603412.4    
   1970000   1299.7145     -230510.55      0             -219758.63     -71.790001      1603411.8    
   1970500   1300.1719     -230483.69      0             -219727.99      122.39785      1603411.3    
   1971000   1303.9115     -230487.1       0             -219700.47      93.684891      1603410.8    
   1971500   1302.7551     -230461.55      0             -219684.48      149.39108      1603410.3    
   1972000   1302.5695     -230459.05      0             -219683.52      218.66457      1603409.9    
   1972500   1301.5444     -230468.91      0             -219701.86     -151.24569      1603409.5    
   1973000   1303.3293     -230519.57      0             -219737.75     -39.170997      1603409.1    
   1973500   1298.2463     -230515.31      0             -219775.54     -144.76863      1603408.7    
   1974000   1295.9203     -230515.77      0             -219795.24      23.967722      1603408.3    
   1974500   1299.157      -230543.47      0             -219796.17     -175.60137      1603407.9    
   1975000   1301.9947     -230556.01      0             -219785.23     -130.50092      1603407.5    
   1975500   1296.8275     -230498.04      0             -219770.01      122.11839      1603407.1    
   1976000   1298.1432     -230493.21      0             -219754.29      179.61156      1603406.8    
   1976500   1296.7826     -230471.39      0             -219743.72      563.59181      1603406.4    
   1977000   1298.5502     -230482.45      0             -219740.17      267.74365      1603406.1    
   1977500   1296.2589     -230462.85      0             -219739.52     -145.30916      1603405.8    
   1978000   1299.6685     -230490.54      0             -219739        -119.67297      1603405.5    
   1978500   1298.4442     -230480.72      0             -219739.32      51.966748      1603405.2    
   1979000   1298.9964     -230489.1       0             -219743.13     -50.525366      1603404.9    
   1979500   1301.076      -230511.3       0             -219748.12     -21.359182      1603404.7    
   1980000   1301.6302     -230524.8       0             -219757.04      84.052402      1603404.4    
   1980500   1293.9204     -230478.29      0             -219774.31      197.45964      1603404.2    
   1981000   1300.2864     -230549.65      0             -219793        -338.32406      1603403.9    
   1981500   1291.1629     -230480.13      0             -219798.96     -35.066769      1603403.6    
   1982000   1297.8457     -230521.17      0             -219784.72     -269.915        1603403.3    
   1982500   1295.4785     -230464.83      0             -219747.96      44.465835      1603403      
   1983000   1298.9618     -230455.2       0             -219709.51     -21.640921      1603402.7    
   1983500   1304.9999     -230483.8       0             -219688.16      319.4901       1603402.3    
   1984000   1306.7903     -230495.45      0             -219685         27.613016      1603402      
   1984500   1299.6228     -230447.63      0             -219696.47      123.96624      1603401.7    
   1985000   1299.2087     -230465.99      0             -219718.26     -101.90697      1603401.4    
   1985500   1303.0685     -230526.5       0             -219746.84     -220.11437      1603401.1    
   1986000   1297.8891     -230516.23      0             -219779.42     -474.54662      1603400.7    
   1986500   1297.7335     -230548.66      0             -219813.13     -282.64354      1603400.4    
   1987000   1296.9721     -230574.8       0             -219845.57     -357.39688      1603399.9    
   1987500   1293.0174     -230573.82      0             -219877.31     -406.6639       1603399.5    
   1988000   1288.4755     -230543.23      0             -219884.29     -491.86818      1603399      
   1988500   1290.6255     -230516.87      0             -219840.15     -154.57812      1603398.4    
   1989000   1294.9722     -230493.72      0             -219781.03     -106.08856      1603397.8    
   1989500   1299.7814     -230498.61      0             -219746.14     -126.5602       1603397.2    
   1990000   1298.3025     -230461.89      0             -219721.66      13.552484      1603396.5    
   1990500   1302.3888     -230476.66      0             -219702.62      113.34142      1603395.9    
   1991000   1304.3721     -230482.18      0             -219691.74      41.86847       1603395.3    
   1991500   1305.4826     -230494.64      0             -219695         297.70014      1603394.6    
   1992000   1304.4959     -230507.92      0             -219716.45     -1.4452447      1603394.1    
   1992500   1295.5449     -230467.3       0             -219749.88      12.657718      1603393.5    
   1993000   1293.8062     -230483.77      0             -219780.73     -110.60807      1603393      
   1993500   1298.1469     -230535.12      0             -219796.17      94.188552      1603392.4    
   1994000   1295.573      -230512.88      0             -219795.22     -305.75494      1603391.8    
   1994500   1300.4284     -230532.54      0             -219774.72     -159.83945      1603391.2    
   1995000   1299.6523     -230474.17      0             -219722.77      248.98569      1603390.6    
   1995500   1308.2845     -230495.07      0             -219672.26      189.73506      1603390      
   1996000   1312.2156     -230519.05      0             -219663.72     -20.976092      1603389.5    
   1996500   1304.585      -230468.53      0             -219676.33      136.37478      1603389      
   1997000   1307.444      -230517         0             -219701.14     -189.0619       1603388.5    
   1997500   1302.3356     -230505.79      0             -219732.19     -252.40588      1603388      
   1998000   1301.7188     -230526.47      0             -219757.98      303.37676      1603387.6    
   1998500   1297.6998     -230512.28      0             -219777.03      203.41211      1603387.2    
   1999000   1297.2067     -230518.09      0             -219786.92      24.294565      1603386.8    
   1999500   1292.9503     -230483.17      0             -219787.21      40.17532       1603386.4    
   2000000   1297.4053     -230506.77      0             -219773.96      69.125386      1603386      
Loop time of 43602.5 on 10 procs for 2000000 steps with 64000 atoms

Performance: 3.963 ns/day, 6.056 hours/ns, 45.869 timesteps/s
99.2% CPU use with 10 MPI tasks x no OpenMP threads

MPI task timing breakdown:
Section |  min time  |  avg time  |  max time  |%varavg| %total
---------------------------------------------------------------
Pair    | 38745      | 39464      | 40270      | 209.3 | 90.51
Neigh   | 1409.5     | 1447.1     | 1706.3     | 227.9 |  3.32
Comm    | 1159.9     | 1905.9     | 2658.8     | 984.9 |  4.37
Output  | 15.99      | 15.998     | 16.067     |   0.6 |  0.04
Modify  | 629.09     | 645.92     | 657.28     |  40.5 |  1.48
Other   |            | 123.2      |            |       |  0.28

Nlocal:           6400 ave        6475 max        6315 min
Histogram: 1 1 2 0 0 2 1 0 0 3
Nghost:        12819.5 ave       12905 max       12707 min
Histogram: 1 0 0 3 1 0 0 2 1 2
Neighs:         718378 ave      738658 max      697488 min
Histogram: 1 1 1 2 0 1 0 2 1 1

Total # of neighbors = 7183780
Ave neighs/atom = 112.24656
Neighbor list builds = 64120
Dangerous builds = 0
Total wall time: 12:06:43
