LAMMPS (23 Jun 2022 - Update 4)
# 3d vashishta

units		metal
atom_style	atomic

boundary        p p p


lattice		custom 1              a1 5.5392  0. 0.              a2 0.0 5.5392  0.0            a3 0.0 0.0 5.5392             basis 0.   0.   0.            basis 0.5  0.5  0.            basis 0.5  0.   0.5            basis 0.   0.5  0.5            basis 0.5  0.   0.             basis 0.   0.5  0.             basis 0.   0.   0.5             basis 0.5  0.5  0.5
Lattice spacing in x,y,z = 5.5392 5.5392 5.5392


region		caixa block 0 20 0 20 0 20
create_box	2 caixa
Created orthogonal box = (0 0 0) to (110.784 110.784 110.784)
  1 by 2 by 5 MPI processor grid
create_atoms	1 region caixa basis 1 1 basis 2 1 basis 3 1 basis 4 1             	  basis 5 2 basis 6 2 basis 7 2 basis 8 2
Created 64000 atoms
  using lattice units in orthogonal box = (0 0 0) to (110.784 110.784 110.784)
  create_atoms CPU = 0.003 seconds

mass		1 137.33
mass		2 15.9994

#velocity	all create 2100. 473204 dist gaussian
velocity        all create 1700. 473204 dist gaussian

group		Ba type 1
32000 atoms in group Ba
group		O type 2
32000 atoms in group O

pair_style	table linear 50000
pair_coeff	1 1 Pot_BaO Vash_11
WARNING: 23463 of 50000 force values in table Vash_11 are inconsistent with -dE/dr.
WARNING:  Should only be flagged at inflection points (../pair_table.cpp:463)
WARNING: 43814 of 50000 distance values in table 1e-06 with relative error
WARNING:  over Vash_11 to re-computed values (../pair_table.cpp:471)
pair_coeff	1 2 Pot_BaO Vash_12
WARNING: 23576 of 50000 force values in table Vash_12 are inconsistent with -dE/dr.
WARNING:  Should only be flagged at inflection points (../pair_table.cpp:463)
WARNING: 43814 of 50000 distance values in table 1e-06 with relative error
WARNING:  over Vash_12 to re-computed values (../pair_table.cpp:471)
pair_coeff	2 2 Pot_BaO Vash_22
WARNING: 23794 of 50000 force values in table Vash_22 are inconsistent with -dE/dr.
WARNING:  Should only be flagged at inflection points (../pair_table.cpp:463)
WARNING: 43814 of 50000 distance values in table 1e-06 with relative error
WARNING:  over Vash_22 to re-computed values (../pair_table.cpp:471)

timestep	0.001   #1.0 fs

thermo		500         # intervalo para mostrar output instantaneos.

neighbor	2.0 bin
neigh_modify	every 8 delay 0 check yes

restart		1000 BaO-nvt.T2100

#fix		ensemble all nve
#fix		ensemble all nvt temp 300 300 0.1 iso 0.0 0.0 0.5 drag 2.0

#fix    ensemble all nvt temp 2100 2100 0.1

#fix    ensemble all nvt temp 3500 3500 0.05

# mudanca no ensemble NPT
fix ensemble all npt temp 1700.0 1700.0 1.0 iso 0.0 0.0 1000.0

run		2000000
Generated 0 of 1 mixed pair_coeff terms from geometric mixing rule
Neighbor list info ...
  update every 8 steps, delay 0 steps, check yes
  max neighbors/atom: 2000, page size: 100000
  master list distance cutoff = 11
  ghost atom cutoff = 11
  binsize = 5.5, bins = 21 21 21
  1 neighbor lists, perpetual/occasional/extra = 1 0 0
  (1) pair table, perpetual
      attributes: half, newton on
      pair build: half/bin/atomonly/newton
      stencil: half/bin/3d
      bin: standard
Per MPI rank memory allocation (min/avg/max) = 8.384 | 9.056 | 9.533 Mbytes
   Step          Temp          E_pair         E_mol          TotEng         Press          Volume    
         0   1700          -243821.04      0             -229757.75      10735.244      1359662.5    
       500   876.47234     -236731.85      0             -229481.22      39996.105      1359664.3    
      1000   931.4853      -236774.55      0             -229068.82      40444.655      1359669.8    
      1500   950.97869     -236461.62      0             -228594.63      42036.269      1359679      
      2000   986.15024     -236233.15      0             -228075.2       43300.677      1359692.1    
      2500   1022.8374     -235980.44      0             -227518.99      44661.689      1359709.2    
      3000   1060.0795     -235700.22      0             -226930.69      46226.855      1359730.4    
      3500   1100.5979     -235419.42      0             -226314.7       47586.485      1359755.9    
      4000   1139.7475     -235103.12      0             -225674.53      49449.402      1359785.8    
      4500   1181.0738     -234784.52      0             -225014.06      51268.054      1359820.3    
      5000   1225.5668     -234475.15      0             -224336.62      52739.238      1359859.5    
      5500   1270.8403     -234159.75      0             -223646.7       54410.185      1359903.5    
      6000   1318.7046     -233857.39      0             -222948.38      56022.112      1359952.6    
      6500   1363.3743     -233525.17      0             -222246.63      57842.743      1360006.8    
      7000   1406.3617     -233181         0             -221546.85      59625.247      1360066.4    
      7500   1458.8431     -232923.58      0             -220855.27      61048.249      1360131.4    
      8000   1492.6122     -232526.82      0             -220179.16      62907.998      1360202.1    
      8500   1542.6208     -232286.66      0             -219525.3       64502.41       1360278.6    
      9000   1580.0425     -231974.1       0             -218903.16      65757.706      1360361      
      9500   1626.8382     -231780.27      0             -218322.22      67040.571      1360449.5    
     10000   1652.0625     -231460.95      0             -217794.23      68403.459      1360544.1    
     10500   1682.0123     -231248.13      0             -217333.65      69721.75       1360645      
     11000   1710.7082     -231108.63      0             -216956.77      70355.606      1360752.3    
     11500   1723.9755     -230945.21      0             -216683.59      71160.685      1360865.9    
     12000   1735.0183     -230891.42      0             -216538.44      71258.729      1360986.1    
     12500   1732.0584     -230871.82      0             -216543.34      71311.004      1361112.7    
     13000   1724.8671     -230961.59      0             -216692.59      70714.645      1361245.7    
     13500   1713.3403     -231104.78      0             -216931.14      70144.931      1361385      
     14000   1692.8131     -231185.32      0             -217181.49      69490.577      1361530.6    
     14500   1683.1178     -231307.57      0             -217383.94      68766.554      1361682.4    
     15000   1674.6523     -231352.71      0             -217499.12      68602.215      1361840.2    
     15500   1666.9536     -231297.35      0             -217507.44      68653.629      1362003.9    
     16000   1683.8636     -231336.63      0             -217406.83      68406.786      1362173.5    
     16500   1691.9433     -231226.6       0             -217229.96      68905.99       1362349      
     17000   1698.059      -231078.55      0             -217031.32      69686.464      1362530.2    
     17500   1716.4401     -231061.66      0             -216862.38      69720.373      1362717.1    
     18000   1724.1697     -231023.93      0             -216760.7       69864.167      1362909.8    
     18500   1723.8919     -231011.08      0             -216750.15      69680.07       1363107.9    
     19000   1714.1846     -231012.17      0             -216831.54      69607.202      1363311.6    
     19500   1707.2844     -231103.6       0             -216980.05      69219.206      1363520.5    
     20000   1698.3099     -231199.49      0             -217150.19      68624.127      1363734.6    
     20500   1689.2361     -231271.61      0             -217297.37      68244.662      1363953.6    
     21000   1679.3074     -231280.4       0             -217388.3       67899.146      1364177.4    
     21500   1673.1991     -231244.26      0             -217402.68      67965.954      1364405.8    
     22000   1684.8109     -231275.33      0             -217337.7       68013.961      1364638.5    
     22500   1687.4701     -231172.15      0             -217212.52      68045.062      1364875.4    
     23000   1704.6296     -231165.43      0             -217063.84      68120.881      1365116.4    
     23500   1709.5615     -231074.38      0             -216932         68345.265      1365361.2    
     24000   1719.7833     -231075.42      0             -216848.47      68479.25       1365609.8    
     24500   1716.901      -231038.25      0             -216835.15      68587.814      1365861.8    
     25000   1711.9588     -231055.72      0             -216893.51      68171.681      1366117.1    
     25500   1694.1839     -231021.58      0             -217006.41      68074.944      1366375.3    
     26000   1701.8897     -231220.73      0             -217141.81      67262.938      1366636.4    
     26500   1694.2379     -231279.66      0             -217264.04      66906.635      1366899.9    
     27000   1685.0642     -231282.02      0             -217342.29      66842.277      1367165.7    
     27500   1683.6436     -231286.14      0             -217358.17      66619.208      1367433.4    
     28000   1684.9566     -231247.51      0             -217308.67      66666.977      1367702.8    
     28500   1695.3312     -231232.71      0             -217208.05      66533.101      1367973.6    
     29000   1701.1993     -231158.95      0             -217085.74      67020.449      1368245.7    
     29500   1705.4144     -231082.45      0             -216974.38      67127.06       1368518.8    
     30000   1716.8223     -231104.94      0             -216902.49      66984.819      1368792.7    
     30500   1712.3693     -231053.65      0             -216888.04      67087.055      1369067.3    
     31000   1711.3395     -231090.84      0             -216933.74      66823.835      1369342.1    
     31500   1711.9118     -231188.96      0             -217027.14      66270.452      1369617.2    
     32000   1699.4158     -231199.09      0             -217140.64      65965.696      1369892.1    
     32500   1693.8498     -231257.27      0             -217244.87      65636.632      1370166.7    
     33000   1688.9047     -231287.14      0             -217315.64      65431.596      1370440.7    
     33500   1688.1982     -231299.59      0             -217333.94      65203.118      1370714      
     34000   1693.5705     -231305.56      0             -217295.46      64944.588      1370986.5    
     34500   1695.8091     -231238.74      0             -217210.13      65500.165      1371257.8    
     35000   1704.0926     -231200.01      0             -217102.87      65227.54       1371528      
     35500   1707.2572     -231127.29      0             -217003.97      65464.197      1371797      
     36000   1718.7956     -231155.48      0             -216936.71      65404.818      1372064.5    
     36500   1707.3683     -231043.53      0             -216919.29      65628.694      1372330.7    
     37000   1710.2732     -231103.25      0             -216954.98      65393.4        1372595.3    
     37500   1704.4895     -231136.07      0             -217035.64      65133.947      1372858.3    
     38000   1697.5899     -231182.06      0             -217138.71      64540.273      1373119.6    
     38500   1691.9945     -231233.2       0             -217236.14      64544.693      1373379.2    
     39000   1692.2594     -231301.08      0             -217301.83      63847.072      1373636.9    
     39500   1690.6623     -231307.36      0             -217321.33      63691.924      1373892.9    
     40000   1688.11       -231253.45      0             -217288.53      63798.297      1374147      
     40500   1697.0396     -231250.76      0             -217211.96      63963.942      1374399.3    
     41000   1709.5952     -231256.4       0             -217113.74      63781.255      1374649.8    
     41500   1714.9373     -231206.81      0             -217019.96      64029.546      1374898.6    
     42000   1712.0508     -231119.11      0             -216956.14      64265.164      1375145.7    
     42500   1707.9051     -231066.11      0             -216937.43      64443.097      1375391.2    
     43000   1707.5505     -231095.4       0             -216969.66      64018.303      1375635.2    
     43500   1710.8711     -231197.13      0             -217043.91      63654.615      1375877.6    
     44000   1697.2399     -231178.84      0             -217138.39      63382.334      1376118.6    
     44500   1689.7678     -231206.98      0             -217228.34      63206.891      1376358.1    
     45000   1695.432      -231316.12      0             -217290.62      63011.84       1376596.3    
     45500   1688.0124     -231273.97      0             -217309.85      62831.891      1376833.2    
     46000   1689.4497     -231257.11      0             -217281.11      62727.35       1377068.9    
     46500   1696.8331     -231248.62      0             -217211.54      62636.666      1377303.5    
     47000   1703.1205     -231210.29      0             -217121.19      62869.523      1377537      
     47500   1713.9295     -231212.71      0             -217034.19      62906.064      1377769.6    
     48000   1704.4851     -231074.12      0             -216973.73      63147.837      1378001.4    
     48500   1717.3817     -231162.45      0             -216955.38      62870.25       1378232.5    
     49000   1708.1713     -231114.76      0             -216983.88      62903.994      1378462.9    
     49500   1703.944      -231146.8       0             -217050.89      62684.456      1378692.8    
     50000   1702.0918     -231219.06      0             -217138.47      62353.42       1378922.2    
     50500   1694.1461     -231236.76      0             -217221.9       62111.085      1379151.1    
     51000   1691.1584     -231269.79      0             -217279.65      61779.285      1379379.7    
     51500   1687.775      -231259.64      0             -217297.49      61679.304      1379607.9    
     52000   1685.9478     -231217.56      0             -217270.53      61542.859      1379835.9    
     52500   1693.6518     -231217.18      0             -217206.41      61637.9        1380063.7    
     53000   1695.193      -231146.08      0             -217122.56      61935.939      1380291.4    
     53500   1708.6968     -231175.57      0             -217040.34      61760.765      1380519      
     54000   1706.1653     -231096.94      0             -216982.65      62347.819      1380746.7    
     54500   1706.6815     -231082.38      0             -216963.82      61943.198      1380974.4    
     55000   1709.8739     -231133.92      0             -216988.95      61502.981      1381202.4    
     55500   1706.2144     -231166.64      0             -217051.95      61461.587      1381430.5    
     56000   1693.9392     -231148.01      0             -217134.86      61382.663      1381658.8    
     56500   1697.4936     -231258.11      0             -217215.56      61021.115      1381887.3    
     57000   1697.6868     -231316.38      0             -217272.23      60558.106      1382116.1    
     57500   1690.3489     -231274.51      0             -217291.07      60501.205      1382345.1    
     58000   1689.0386     -231238.36      0             -217265.75      60598.01       1382574.4    
     58500   1698.4266     -231253.89      0             -217203.63      60524.892      1382804      
     59000   1703.9405     -231217.67      0             -217121.79      60545.923      1383033.9    
     59500   1711.051      -231196.99      0             -217042.29      60472.861      1383264.1    
     60000   1702.1101     -231066.72      0             -216985.98      61214.522      1383494.7    
     60500   1710.6755     -231119.56      0             -216967.96      60987.135      1383725.7    
     61000   1710.0369     -231138.62      0             -216992.31      60741.532      1383957.1    
     61500   1712.4515     -231220.66      0             -217054.37      60043.849      1384188.9    
     62000   1702.5952     -231218.73      0             -217133.98      59880.893      1384421      
     62500   1698.6673     -231261.86      0             -217209.6       59704.28       1384653.5    
     63000   1686.5259     -231215.45      0             -217263.63      59603.625      1384886.2    
     63500   1694.2806     -231297.49      0             -217281.52      59471.085      1385119.3    
     64000   1689.9419     -231238.71      0             -217258.63      59576.196      1385352.5    
     64500   1698.9594     -231255.62      0             -217200.94      59501.422      1385586      
     65000   1697.6879     -231167.68      0             -217123.52      59581.715      1385819.7    
     65500   1697.518      -231091.13      0             -217048.37      59968.819      1386053.7    
     66000   1705.8676     -231106.23      0             -216994.41      59744.002      1386287.8    
     66500   1709.3441     -231116.12      0             -216975.54      59551.284      1386522.2    
     67000   1707.1804     -231119.56      0             -216996.87      59582.916      1386756.7    
     67500   1707.248      -231175.37      0             -217052.13      59147.284      1386991.3    
     68000   1706.3894     -231241.85      0             -217125.71      58928.797      1387226.1    
     68500   1693.0385     -231204.58      0             -217198.88      58960.089      1387460.9    
     69000   1695.5382     -231277.43      0             -217251.06      58519.005      1387695.6    
     69500   1692.1858     -231267.79      0             -217269.15      58531.75       1387930.3    
     70000   1692.1007     -231245.6       0             -217247.67      58412.378      1388165      
     70500   1695.53       -231218.97      0             -217192.66      58419.424      1388399.5    
     71000   1702.7128     -231204.62      0             -217118.9       58484.276      1388633.8    
     71500   1708.0972     -231177.45      0             -217047.18      58603.313      1388868      
     72000   1710.354      -231144.58      0             -216995.64      58468.36       1389102      
     72500   1711.8719     -231139.57      0             -216978.07      58572.673      1389335.8    
     73000   1704.7883     -231101.8       0             -216998.91      58641.152      1389569.3    
     73500   1708.4597     -231184.9       0             -217051.64      58003.558      1389802.6    
     74000   1702.7394     -231207.21      0             -217121.27      57811.966      1390035.5    
     74500   1696.2224     -231220.99      0             -217188.96      57690.516      1390268      
     75000   1692.4219     -231236.75      0             -217236.16      57427.877      1390500.2    
     75500   1693.1173     -231257.42      0             -217251.08      57488.365      1390731.8    
     76000   1697.6787     -231274.07      0             -217229.98      57186.424      1390963      
     76500   1699.2377     -231234.92      0             -217177.94      57363.048      1391193.7    
     77000   1696.6856     -231146.31      0             -217110.45      57775.286      1391423.8    
     77500   1702.8973     -231130.97      0             -217043.72      57473.501      1391653.4    
     78000   1706.725      -231115.05      0             -216996.13      57501.441      1391882.4    
     78500   1707.6519     -231106.35      0             -216979.77      57945.046      1392110.8    
     79000   1709.1681     -231136.55      0             -216997.43      57305.32       1392338.7    
     79500   1701.1292     -231117.38      0             -217044.75      57504.032      1392565.9    
     80000   1696.793      -231145.25      0             -217108.5       56953.232      1392792.5    
     80500   1696.881      -231209.67      0             -217172.19      56709.901      1393018.4    
     81000   1686.6283     -231169.89      0             -217217.23      56752.665      1393243.6    
     81500   1691.2778     -231224.06      0             -217232.93      56328.717      1393468.1    
     82000   1697.8877     -231260.54      0             -217214.73      56204.349      1393691.8    
     82500   1691.5278     -231161.27      0             -217168.07      56429.665      1393914.7    
     83000   1696.5492     -231139.66      0             -217104.92      56644.286      1394136.9    
     83500   1705.3085     -231150.78      0             -217043.58      56497.204      1394358.3    
     84000   1712.8279     -231167.39      0             -216997.99      56264.187      1394579      
     84500   1705.5072     -231090.17      0             -216981.33      56462.025      1394798.9    
     85000   1707.0559     -231119.03      0             -216997.37      56384.366      1395018      
     85500   1700.1518     -231107.85      0             -217043.31      56430.35       1395236.4    
     86000   1703.3854     -231195.17      0             -217103.88      55699.074      1395454      
     86500   1693.1825     -231170.78      0             -217163.9       55861.614      1395670.8    
     87000   1694.9861     -231228.13      0             -217206.32      55425.027      1395886.8    
     87500   1687.9055     -231185.93      0             -217222.7       55625.753      1396102      
     88000   1690.9627     -231195.58      0             -217207.06      55625.435      1396316.4    
     88500   1694.0015     -231176.61      0             -217162.95      55387.068      1396529.9    
     89000   1697.8169     -231147.98      0             -217102.76      55507.548      1396742.7    
     89500   1702.2832     -231123.99      0             -217041.81      55895.009      1396954.7    
     90000   1706.9478     -231117.13      0             -216996.37      55659.737      1397165.9    
     90500   1702.8062     -231065.39      0             -216978.89      55836.333      1397376.4    
     91000   1704.6477     -231093.94      0             -216992.21      55445.422      1397586.2    
     91500   1699.2607     -231090.69      0             -217033.52      55342.747      1397795.2    
     92000   1692.6636     -231094.28      0             -217091.69      55461.915      1398003.5    
     92500   1699.4495     -231207.63      0             -217148.9       54683.043      1398211      
     93000   1693.6982     -231201.48      0             -217190.32      54578.054      1398417.9    
     93500   1694.3281     -231221.76      0             -217205.4       54587.687      1398624      
     94000   1693.4763     -231199.13      0             -217189.82      54472.212      1398829.3    
     94500   1696.0523     -231178.14      0             -217147.52      54531.163      1399034      
     95000   1703.7904     -231183.62      0             -217088.98      54440.851      1399237.9    
     95500   1702.4279     -231115.5       0             -217032.13      54860.604      1399441.2    
     96000   1709.3807     -231131.72      0             -216990.83      54722.573      1399643.9    
     96500   1703.8615     -231070.88      0             -216975.65      54797.804      1399845.9    
     97000   1709.9039     -231135.53      0             -216990.31      54613.533      1400047.3    
     97500   1700.7382     -231099.18      0             -217029.79      54529.552      1400248.2    
     98000   1694.5609     -231102.32      0             -217084.03      54355.423      1400448.4    
     98500   1697.8149     -231182.12      0             -217136.91      54036.595      1400648      
     99000   1695.7083     -231203.4       0             -217175.62      53765.165      1400847.1    
     99500   1692.5218     -231191.11      0             -217189.68      53603.969      1401045.5    
    100000   1689.061      -231148.02      0             -217175.23      53760.897      1401243.4    
    100500   1700.9371     -231206.66      0             -217135.63      53690.989      1401440.7    
    101000   1697.9146     -231127.62      0             -217081.59      53989.288      1401637.4    
    101500   1705.5176     -231134.62      0             -217025.69      53595.588      1401833.7    
    102000   1699.4347     -231043.73      0             -216985.12      54095.082      1402029.4    
    102500   1708.9803     -231107.15      0             -216969.57      53627.952      1402224.7    
    103000   1705.7231     -231093.68      0             -216983.05      53757.187      1402419.5    
    103500   1703.7296     -231116.27      0             -217022.13      53605.938      1402613.9    
    104000   1703.8437     -231170.19      0             -217075.11      53352.669      1402807.8    
    104500   1689.9575     -231108.34      0             -217128.13      53134.102      1403001.2    
    105000   1686.0943     -231113.69      0             -217165.44      53203.791      1403194.2    
    105500   1691.6762     -231172.27      0             -217177.84      53052.568      1403386.8    
    106000   1693.418      -231170.49      0             -217161.66      53112.492      1403578.8    
    106500   1697.6254     -231165.58      0             -217121.94      52895.212      1403770.5    
    107000   1701.9266     -231147.48      0             -217068.26      52991.624      1403961.7    
    107500   1705.8989     -231127.11      0             -217015.02      52870.013      1404152.6    
    108000   1700.8874     -231047.3       0             -216976.67      53216.279      1404343.1    
    108500   1706.8864     -231082.17      0             -216961.92      53040.319      1404533.2    
    109000   1705.0246     -231079.75      0             -216974.9       52986.248      1404723      
    109500   1711.8762     -231173.56      0             -217012.03      52357.754      1404912.5    
    110000   1700.7242     -231132.31      0             -217063.03      52548.336      1405101.6    
    110500   1696.9572     -231151.52      0             -217113.41      52314.069      1405290.3    
    111000   1690.3126     -231132.63      0             -217149.48      52293.099      1405478.8    
    111500   1696.2936     -231194.7       0             -217162.08      52203.035      1405666.8    
    112000   1690.6827     -231133.63      0             -217147.42      52403.53       1405854.6    
    112500   1695.5127     -231135.18      0             -217109.02      52188.99       1406042      
    113000   1696.5181     -231091.6       0             -217057.12      52287.011      1406229.1    
    113500   1705.1201     -231109.67      0             -217004.03      52258.573      1406415.9    
    114000   1701.0619     -231037.7       0             -216965.63      52281.973      1406602.4    
    114500   1703.8318     -231045.98      0             -216951         52331.137      1406788.7    
    115000   1710.6897     -231114.18      0             -216962.47      51994.319      1406974.7    
    115500   1700.861      -231067.61      0             -216997.2       52113.793      1407160.5    
    116000   1699.9779     -231109.12      0             -217046.02      51921.721      1407346      
    116500   1694.3212     -231111.41      0             -217095.1       51657.243      1407531.2    
    117000   1697.0273     -231169.28      0             -217130.59      51312.713      1407716.2    
    117500   1692.5902     -231145.77      0             -217143.79      51251.305      1407900.9    
    118000   1691.6494     -231125.97      0             -217131.77      51316.337      1408085.3    
    118500   1693.9748     -231110.22      0             -217096.78      51545.196      1408269.5    
    119000   1705.2741     -231155.35      0             -217048.44      51264.082      1408453.4    
    119500   1701.2165     -231072.31      0             -216998.96      51534.079      1408637      
    120000   1706.5182     -231078.42      0             -216961.21      51672.188      1408820.5    
    120500   1705.0322     -231050.56      0             -216945.64      51548.234      1409003.7    
    121000   1706.7771     -231074.98      0             -216955.63      51498.862      1409186.7    
    121500   1698.274      -231038.47      0             -216989.46      51533.481      1409369.6    
    122000   1703.4668     -231128.84      0             -217036.88      50980.591      1409552.2    
    122500   1689.5795     -231062.34      0             -217085.26      51077.073      1409734.6    
    123000   1694.5258     -231137.32      0             -217119.32      50668.521      1409916.8    
    123500   1692.4139     -231131.22      0             -217130.69      50490.747      1410098.7    
    124000   1696.8959     -231154.1       0             -217116.5       50614.716      1410280.4    
    124500   1693.349      -231088.08      0             -217079.82      50850.553      1410461.9    
    125000   1702.0107     -231109.24      0             -217029.32      50806.477      1410643.1    
    125500   1707.7734     -231106.66      0             -216979.08      50681.065      1410824.2    
    126000   1705.2395     -231049.01      0             -216942.38      50805.676      1411005.1    
    126500   1711.4264     -231087.35      0             -216929.54      50521.426      1411185.8    
    127000   1706.7772     -231061.89      0             -216942.54      50754.151      1411366.3    
    127500   1704.1194     -231074.74      0             -216977.38      50594.933      1411546.7    
    128000   1695.4064     -231049.23      0             -217023.95      50062.953      1411726.8    
    128500   1694.6448     -231091.08      0             -217072.1       50135.598      1411906.8    
    129000   1690.9709     -231094.76      0             -217106.17      50266.327      1412086.6    
    129500   1688.9264     -231089.8       0             -217118.12      50186.564      1412266.1    
    130000   1682.6478     -231023.3       0             -217103.56      50100.231      1412445.4    
    130500   1696.932      -231104.2       0             -217066.29      49767.649      1412624.6    
    131000   1701.4874     -231090.91      0             -217015.32      50090.151      1412803.5    
    131500   1707.5436     -231090.37      0             -216964.68      49806.591      1412982.3    
    132000   1703.109      -231016.71      0             -216927.71      50251.681      1413160.9    
    132500   1697.2933     -230955.24      0             -216914.35      50107.741      1413339.3    
    133000   1711.3255     -231084.64      0             -216927.66      49771.036      1413517.6    
    133500   1704.6696     -231065.77      0             -216963.85      49601.581      1413695.7    
    134000   1697.0643     -231050.23      0             -217011.23      49549.341      1413873.6    
    134500   1697.2693     -231098.7       0             -217058         49385.869      1414051.4    
    135000   1690.9891     -231079.85      0             -217091.11      49516.539      1414229      
    135500   1687.6812     -231062.89      0             -217101.52      49526.728      1414406.4    
    136000   1692.7856     -231088.95      0             -217085.35      49334.776      1414583.6    
    136500   1694.5743     -231067.35      0             -217048.95      49229.304      1414760.5    
    137000   1692.5454     -231003.89      0             -217002.27      49573.035      1414937.4    
    137500   1702.8819     -231043.2       0             -216956.07      49159.145      1415114      
    138000   1702.6616     -231008.81      0             -216923.51      49627.276      1415290.5    
    138500   1707.4297     -231035.25      0             -216910.5       49211.321      1415466.8    
    139000   1704.6441     -231023.39      0             -216921.68      49195.253      1415642.9    
    139500   1700.8447     -231023.83      0             -216953.56      49307.867      1415818.9    
    140000   1703.3001     -231087.13      0             -216996.54      48916.492      1415994.8    
    140500   1698.0529     -231085.69      0             -217038.52      48756.194      1416170.5    
    141000   1695.488      -231094.57      0             -217068.61      48630.248      1416346      
    141500   1701.1641     -231150.18      0             -217077.27      48495.953      1416521.3    
    142000   1692.7865     -231065.34      0             -217061.73      48712.247      1416696.4    
    142500   1694.6406     -231046.22      0             -217027.27      48541.904      1416871.4    
    143000   1703.3042     -231072.41      0             -216981.8       48372.983      1417046.2    
    143500   1702.4984     -231021.77      0             -216937.82      48641.743      1417220.8    
    144000   1704.2097     -231004.72      0             -216906.61      48615.208      1417395.3    
    144500   1709.4819     -231037.85      0             -216896.12      48563.461      1417569.6    
    145000   1697.2586     -230949.9       0             -216909.29      48934.013      1417743.8    
    145500   1702.6391     -231026.08      0             -216940.97      48594.54       1417917.8    
    146000   1702.4743     -231068.46      0             -216984.71      48165.423      1418091.7    
    146500   1692.5494     -231028.55      0             -217026.9       48170.325      1418265.4    
    147000   1693.077      -231060.65      0             -217054.63      47929.451      1418439      
    147500   1688.557      -231029.86      0             -217061.24      47972.507      1418612.3    
    148000   1692.5982     -231046.15      0             -217044.1       48133.675      1418785.5    
    148500   1691.9918     -231005.03      0             -217007.99      48132.878      1418958.5    
    149000   1701.7839     -231041.02      0             -216962.98      48082.893      1419131.4    
    149500   1707.2129     -231043.73      0             -216920.78      48019.455      1419304.1    
    150000   1709.1397     -231031.1       0             -216892.2       47641.591      1419476.6    
    150500   1710.029      -231030.13      0             -216883.88      47598.078      1419649.1    
    151000   1706.6904     -231015.93      0             -216897.3       47708.55       1419821.3    
    151500   1703.7473     -231022.42      0             -216928.14      47849.517      1419993.5    
    152000   1700.4498     -231036.09      0             -216969.09      47808.925      1420165.5    
    152500   1697.7552     -231053.2       0             -217008.49      47435.346      1420337.3    
    153000   1696.7655     -231072.15      0             -217035.62      47226.129      1420508.9    
    153500   1699.1485     -231099.26      0             -217043.02      47380.951      1420680.4    
    154000   1693.6218     -231038.53      0             -217028.01      47339.145      1420851.7    
    154500   1697.2591     -231035.19      0             -216994.58      47209.795      1421022.9    
    155000   1700.0048     -231015.05      0             -216951.73      47256.636      1421193.9    
    155500   1704.4225     -231010.01      0             -216910.14      47306.479      1421364.7    
    156000   1707.6029     -231006.86      0             -216880.68      47229.942      1421535.4    
    156500   1705.5165     -230980.3       0             -216871.38      47117.09       1421705.9    
    157000   1700.4868     -230951.3       0             -216883.99      47205.502      1421876.3    
    157500   1701.2812     -230989.04      0             -216915.16      47418.546      1422046.6    
    158000   1696.5748     -230990.27      0             -216955.32      47193.549      1422216.7    
    158500   1691.4198     -230986.54      0             -216994.23      46945.248      1422386.7    
    159000   1695.4556     -231045.54      0             -217019.85      46710.292      1422556.5    
    159500   1697.5053     -231068.53      0             -217025.89      46638.247      1422726.1    
    160000   1696.9042     -231047.7       0             -217010.03      46823.417      1422895.6    
    160500   1696.2521     -231008.16      0             -216975.88      46789.146      1423064.9    
    161000   1700.6947     -231001.21      0             -216932.18      46632.529      1423234.1    
    161500   1698.5551     -230943.45      0             -216892.12      46905.529      1423403.1    
    162000   1702.878      -230951.84      0             -216864.75      46718.854      1423572      
    162500   1705.7373     -230968.32      0             -216857.58      46978.511      1423740.8    
    163000   1708.7291     -231007.83      0             -216872.33      46460.041      1423909.4    
    163500   1695.3686     -230929.78      0             -216904.81      46648.25       1424078      
    164000   1704.7634     -231048.76      0             -216946.08      45897.683      1424246.3    
    164500   1698.8944     -231038.96      0             -216984.82      46013.873      1424414.6    
    165000   1694.5951     -231027.17      0             -217008.6       46015.168      1424582.6    
    165500   1694.1211     -231025.59      0             -217010.94      46064.328      1424750.6    
    166000   1698.4711     -231040.86      0             -216990.22      45854.721      1424918.3    
    166500   1697.5926     -230995.55      0             -216952.18      45993.957      1425085.9    
    167000   1693.0563     -230912.36      0             -216906.52      46592.85       1425253.4    
    167500   1700.8159     -230934.22      0             -216864.19      46099.226      1425420.7    
    168000   1703.7935     -230931.78      0             -216837.12      46122.445      1425587.9    
    168500   1709.5211     -230974.39      0             -216832.34      46051.438      1425755      
    169000   1709.9271     -230995.34      0             -216849.94      45841.015      1425921.9    
    169500   1701.4214     -230961.23      0             -216886.18      45818.981      1426088.8    
    170000   1694.6019     -230949.11      0             -216930.48      45757.958      1426255.5    
    170500   1692.6262     -230972.63      0             -216970.35      45637.464      1426422      
    171000   1688.8723     -230964.49      0             -216993.26      45693.325      1426588.4    
    171500   1691.2626     -230985.31      0             -216994.3       45479.559      1426754.7    
    172000   1693.3835     -230980.62      0             -216972.07      45540.447      1426920.8    
    172500   1696.7345     -230968.12      0             -216931.85      45604.111      1427086.8    
    173000   1697.1718     -230926.6       0             -216886.71      45765.498      1427252.6    
    173500   1703.1655     -230937.49      0             -216848.02      45863.674      1427418.3    
    174000   1707.6742     -230951.92      0             -216825.15      45648.687      1427583.9    
    174500   1707.2289     -230947.33      0             -216824.25      45588.039      1427749.4    
    175000   1713.5224     -231020.29      0             -216845.15      45232.582      1427914.8    
    175500   1699.0382     -230936.35      0             -216881.02      45178.959      1428080      
    176000   1694.8139     -230942.15      0             -216921.77      45281.145      1428245.1    
    176500   1697.251      -230996.4       0             -216955.85      44916.489      1428410.1    
    177000   1699.0485     -231027.83      0             -216972.41      44861.194      1428575      
    177500   1693.7048     -230980.29      0             -216969.09      45011.46       1428739.7    
    178000   1688.1817     -230910.06      0             -216944.54      45523.032      1428904.2    
    178500   1699.7969     -230967.66      0             -216906.05      44864.125      1429068.6    
    179000   1708.9082     -231001.24      0             -216864.26      44735.995      1429232.9    
    179500   1707.8114     -230958.7       0             -216830.8       44871.837      1429397.1    
    180000   1705.362      -230920.42      0             -216812.78      44911.506      1429561.1    
    180500   1702.5447     -230898.76      0             -216814.43      44711.063      1429725.1    
    181000   1701.6573     -230910.8       0             -216833.81      44747.261      1429888.9    
    181500   1703.8565     -230960.56      0             -216865.37      44624.983      1430052.6    
    182000   1705.551      -231010.48      0             -216901.27      44225.496      1430216.2    
    182500   1700.021      -230994.01      0             -216930.55      44334.668      1430379.7    
    183000   1696.009      -230975.81      0             -216945.54      44268.71       1430543      
    183500   1694.9627     -230962.6       0             -216940.99      44289.4        1430706.2    
    184000   1698.6759     -230969.28      0             -216916.95      44472.078      1430869.2    
    184500   1696.9751     -230918.83      0             -216880.57      44464.74       1431032.1    
    185000   1701.04       -230913.7       0             -216841.82      44575.69       1431194.9    
    185500   1707.5084     -230936.47      0             -216811.07      44316.642      1431357.6    
    186000   1710.4601     -230945.34      0             -216795.52      44195.627      1431520.2    
    186500   1699.6012     -230860.51      0             -216800.53      44453.504      1431682.6    
    187000   1698.5325     -230873.71      0             -216822.56      44433.387      1431845      
    187500   1701.8136     -230933.38      0             -216855.09      43960.506      1432007.3    
    188000   1689.8296     -230867.88      0             -216888.73      44235.467      1432169.4    
    188500   1689.2        -230888.48      0             -216914.54      43958.458      1432331.4    
    189000   1694.8351     -230945.78      0             -216925.22      43800.721      1432493.2    
    189500   1699.6578     -230976.76      0             -216916.31      43674.243      1432655      
    190000   1700.6359     -230959.16      0             -216890.61      43669.789      1432816.6    
    190500   1697.2876     -230895.91      0             -216855.06      43748.017      1432978      
    191000   1706.4794     -230936.45      0             -216819.56      43731.886      1433139.4    
    191500   1704.9043     -230897.41      0             -216793.55      43985.095      1433300.6    
    192000   1711.6165     -230940.65      0             -216781.26      43412.424      1433461.7    
    192500   1707.3157     -230911.35      0             -216787.55      43716.007      1433622.8    
    193000   1703.6912     -230903.17      0             -216809.35      43706.315      1433783.7    
    193500   1698.5166     -230892.76      0             -216841.75      43502.218      1433944.5    
    194000   1704.4025     -230974.2       0             -216874.5       43168.691      1434105.1    
    194500   1700.3592     -230964.67      0             -216898.41      43150.178      1434265.7    
    195000   1699.1023     -230962.05      0             -216906.19      43133.568      1434426.1    
    195500   1695.318      -230921         0             -216896.45      43446.473      1434586.4    
    196000   1703.2682     -230960.19      0             -216869.87      43051.628      1434746.6    
    196500   1701.3684     -230906.44      0             -216831.84      43023.2        1434906.6    
    197000   1705.1778     -230899.82      0             -216793.7       42995.866      1435066.6    
    197500   1699.2769     -230824.69      0             -216767.39      43248.254      1435226.4    
    198000   1706.4132     -230875.27      0             -216758.94      43093.001      1435386.1    
    198500   1705.6339     -230878.65      0             -216768.76      43239.169      1435545.7    
    199000   1701.6613     -230871.36      0             -216794.33      42996.664      1435705.3    
    199500   1702.5952     -230911.85      0             -216827.1       42737.124      1435864.7    
    200000   1699.3585     -230917.99      0             -216860.01      43036.349      1436024      
    200500   1696.8347     -230919.49      0             -216882.39      42539.384      1436183.2    
    201000   1688.3435     -230855.49      0             -216888.64      42828.186      1436342.3    
    201500   1700.5556     -230943.33      0             -216875.45      42499.756      1436501.2    
    202000   1697.1361     -230886.34      0             -216846.75      42581.595      1436660      
    202500   1700.4017     -230875.62      0             -216809.02      42633.262      1436818.7    
    203000   1695.7964     -230801.82      0             -216773.31      42971.35       1436977.3    
    203500   1700.1563     -230814.24      0             -216749.66      42822.656      1437135.7    
    204000   1706.1091     -230855.8       0             -216741.98      42710.225      1437294.1    
    204500   1698.8192     -230806.52      0             -216753.01      42578.82       1437452.4    
    205000   1700.7271     -230850.29      0             -216780.99      42462.633      1437610.5    
    205500   1695.6733     -230843.59      0             -216816.1       42569.02       1437768.6    
    206000   1690.8434     -230835.76      0             -216848.23      42376.086      1437926.5    
    206500   1697.0325     -230907.29      0             -216868.55      42348.214      1438084.4    
    207000   1689.6228     -230847.33      0             -216869.89      42137.836      1438242.1    
    207500   1690.6257     -230838         0             -216852.27      42310.548      1438399.7    
    208000   1694.5424     -230838.32      0             -216820.19      42473.425      1438557.1    
    208500   1698.1138     -230830.33      0             -216782.65      42359.791      1438714.5    
    209000   1710.69       -230902.59      0             -216750.87      42164.097      1438871.8    
    209500   1709.7735     -230875.43      0             -216731.3       42183.473      1439028.9    
    210000   1706.3365     -230845         0             -216729.29      42355.864      1439186      
    210500   1705.142      -230849.4       0             -216743.58      42187.681      1439343      
    211000   1700.2088     -230834.53      0             -216769.52      42010.31       1439499.9    
    211500   1699.7904     -230862.58      0             -216801.03      41993.081      1439656.8    
    212000   1697.0336     -230867.23      0             -216828.48      41911.686      1439813.5    
    212500   1689.1484     -230816.86      0             -216843.35      42140.823      1439970      
    213000   1699.3721     -230898.72      0             -216840.63      41462.497      1440126.5    
    213500   1699.913      -230884.25      0             -216821.68      41737.733      1440282.9    
    214000   1695.7151     -230819.59      0             -216791.75      41713.014      1440439.1    
    214500   1690.3628     -230741.46      0             -216757.9       42163.279      1440595.2    
    215000   1704.3251     -230827.01      0             -216727.94      41432.746      1440751.2    
    215500   1703.4989     -230802.52      0             -216710.29      41687.434      1440907.2    
    216000   1704.8956     -230812.3       0             -216708.52      41529.207      1441063      
    216500   1702.9958     -230811.59      0             -216723.53      41526.699      1441218.7    
    217000   1699.4157     -230808.55      0             -216750.1       41458.571      1441374.3    
    217500   1696.9565     -230819.21      0             -216781.1       41331.671      1441529.9    
    218000   1698.1421     -230855.48      0             -216807.57      41050.614      1441685.3    
    218500   1695.8004     -230852.22      0             -216823.67      41085.735      1441840.6    
    219000   1693.1197     -230829.47      0             -216823.1       41119.88       1441995.8    
    219500   1699.499      -230864.62      0             -216805.48      41054.152      1442150.9    
    220000   1703.0699     -230863.94      0             -216775.26      40787.358      1442305.8    
    220500   1698.8239     -230793.59      0             -216740.03      41343.503      1442460.7    
    221000   1703.8661     -230805.35      0             -216710.08      41206.212      1442615.4    
    221500   1697.9237     -230737.32      0             -216691.21      41364.951      1442770.1    
    222000   1703.8886     -230783.81      0             -216688.36      41107.185      1442924.6    
    222500   1704.9443     -230807.04      0             -216702.86      40813.717      1443079.1    
    223000   1701.3046     -230803.93      0             -216729.85      40865.242      1443233.5    
    223500   1698.4372     -230811.72      0             -216761.36      40928.489      1443387.8    
    224000   1689.549      -230766.07      0             -216789.24      40841.581      1443542      
    224500   1692.1489     -230802.59      0             -216804.25      40719.512      1443696      
    225000   1698.6054     -230853.41      0             -216801.67      40691.108      1443849.9    
    225500   1691.942      -230780.4       0             -216783.78      40840.854      1444003.8    
    226000   1702.2417     -230835.95      0             -216754.13      40500.756      1444157.5    
    226500   1702.1638     -230801.6       0             -216720.42      40351.79       1444311.1    
    227000   1696.7561     -230727         0             -216690.55      40732.681      1444464.6    
    227500   1704.8462     -230775.45      0             -216672.07      40627.312      1444618.1    
    228000   1704.1605     -230768.31      0             -216670.61      40650.362      1444771.4    
    228500   1691.872      -230681.44      0             -216685.39      41125.034      1444924.7    
    229000   1706.7069     -230831.24      0             -216712.47      40315.715      1445077.8    
    229500   1697.4214     -230787.21      0             -216745.26      40211.831      1445230.9    
    230000   1700.5818     -230840.94      0             -216772.84      40247.585      1445383.9    
    230500   1691.4502     -230780.45      0             -216787.89      40107.67       1445536.8    
    231000   1701.3919     -230859.46      0             -216784.66      39997.498      1445689.6    
    231500   1705.283      -230871.32      0             -216764.33      39923.278      1445842.3    
    232000   1696.5638     -230766.49      0             -216731.63      40292.94       1445994.8    
    232500   1700.657      -230763.11      0             -216694.39      40307.948      1446147.3    
    233000   1703.4608     -230755.41      0             -216663.5       40227.2        1446299.6    
    233500   1703.6948     -230739.93      0             -216646.08      40066.594      1446451.9    
    234000   1698.8786     -230700.56      0             -216646.55      40218.095      1446604.1    
    234500   1705.4546     -230772.32      0             -216663.91      40023.653      1446756.2    
    235000   1694.0764     -230706.99      0             -216692.71      40030.428      1446908.3    
    235500   1692.625      -230727.21      0             -216724.94      39967.199      1447060.2    
    236000   1691.5489     -230745.89      0             -216752.52      39623.58       1447212.1    
    236500   1696.1559     -230797.55      0             -216766.07      39624.3        1447363.8    
    237000   1692.1137     -230760.23      0             -216762.18      39706.985      1447515.4    
    237500   1691.7528     -230736.68      0             -216741.63      39802.523      1447666.9    
    238000   1701.6207     -230786.49      0             -216709.8       39708.017      1447818.3    
    238500   1705.8249     -230786.17      0             -216674.7       39327.427      1447969.6    
    239000   1704.9921     -230750.58      0             -216646         39787.129      1448120.9    
    239500   1706.229      -230744.93      0             -216630.12      39465.961      1448272      
    240000   1703.1204     -230719.34      0             -216630.24      39863.778      1448423.1    
    240500   1704.9902     -230750.03      0             -216645.46      39281.351      1448574      
    241000   1693.8698     -230685.95      0             -216673.38      39616.8        1448724.9    
    241500   1697.5426     -230745.18      0             -216702.23      39296.975      1448875.7    
    242000   1691.6385     -230720.75      0             -216726.63      39476.846      1449026.4    
    242500   1696.2066     -230771.34      0             -216739.44      39264.836      1449177      
    243000   1695.2622     -230759.18      0             -216735.08      39191.796      1449327.5    
    243500   1698.5202     -230768.02      0             -216716.98      39196.384      1449477.9    
    244000   1701.3726     -230762.69      0             -216688.06      39265.842      1449628.2    
    244500   1699.8964     -230719.42      0             -216656.99      39210.408      1449778.3    
    245000   1699.7514     -230692.13      0             -216630.9       38975.614      1449928.4    
    245500   1700.6899     -230684.91      0             -216615.92      39259.541      1450078.4    
    246000   1702.1188     -230695.65      0             -216614.84      39409.784      1450228.4    
    246500   1700.2576     -230692.87      0             -216627.45      39122.296      1450378.2    
    247000   1707.89       -230779.24      0             -216650.69      38514.6        1450528      
    247500   1702.5269     -230763.41      0             -216679.22      38824.188      1450677.7    
    248000   1697.6568     -230747.53      0             -216703.63      38759.234      1450827.3    
    248500   1702.6853     -230802.79      0             -216717.29      38502.55       1450976.8    
    249000   1700.7888     -230784.3       0             -216714.49      38273.685      1451126.2    
    249500   1697.5085     -230739.19      0             -216696.51      38568.978      1451275.5    
    250000   1696.268      -230698.71      0             -216666.3       38853.497      1451424.6    
    250500   1704.9        -230736.89      0             -216633.07      38706.271      1451573.7    
    251000   1699.1486     -230662.57      0             -216606.33      38774.891      1451722.7    
    251500   1704.8403     -230693.46      0             -216590.13      38737.059      1451871.7    
    252000   1706.1975     -230702.68      0             -216588.12      38617.554      1452020.5    
    252500   1702.3552     -230685.68      0             -216602.91      38404.613      1452169.3    
    253000   1702.7036     -230717.06      0             -216631.41      38346.569      1452318      
    253500   1694.1483     -230681.56      0             -216666.68      38353.678      1452466.6    
    254000   1698.5734     -230748.05      0             -216696.56      38177.213      1452615.1    
    254500   1692.5834     -230714.69      0             -216712.76      37945.861      1452763.5    
    255000   1693.3999     -230717.01      0             -216708.32      38156.354      1452911.8    
    255500   1697.6816     -230721.7       0             -216677.6       38305.982      1453060      
    256000   1698.0928     -230673.34      0             -216625.83      38363.385      1453208.1    
    256500   1707.2308     -230710.06      0             -216586.96      38241.993      1453356.1    
    257000   1706.8015     -230692.67      0             -216573.12      38177.601      1453504      
    257500   1708.8795     -230714.78      0             -216578.04      37897.127      1453651.8    
    258000   1703.4563     -230686.55      0             -216594.68      38284.328      1453799.6    
    258500   1701.8823     -230693.51      0             -216614.66      38229.373      1453947.3    
    259000   1699.0869     -230691.71      0             -216635.98      38124.166      1454094.9    
    259500   1696.8924     -230693.2       0             -216655.63      37804.914      1454242.4    
    260000   1693.5517     -230684.76      0             -216674.82      37950.235      1454389.8    
    260500   1690.347      -230688.59      0             -216705.16      37706.609      1454537.1    
    261000   1690.1899     -230718.74      0             -216736.61      37521.142      1454684.3    
    261500   1688.9736     -230712.03      0             -216739.96      37533.399      1454831.3    
    262000   1693.9107     -230718.31      0             -216705.4       37781.748      1454978.3    
    262500   1702.2109     -230729.11      0             -216647.53      37441.825      1455125.1    
    263000   1701.1682     -230676.79      0             -216603.84      37554.205      1455271.8    
    263500   1700.8153     -230648.23      0             -216578.2       37707.801      1455418.5    
    264000   1705.1078     -230670.62      0             -216565.09      37753.459      1455565.1    
    264500   1705.6459     -230673.06      0             -216563.07      37508.033      1455711.6    
    265000   1697.4668     -230614.57      0             -216572.24      37860.609      1455858      
    265500   1703.6784     -230689.85      0             -216596.14      37307.899      1456004.3    
    266000   1694.6531     -230656.59      0             -216637.54      37407.17       1456150.6    
    266500   1696.7137     -230722.53      0             -216686.43      37007.173      1456296.7    
    267000   1694.195      -230734.01      0             -216718.75      37171.27       1456442.8    
    267500   1692.0998     -230717.44      0             -216719.51      37113.869      1456588.7    
    268000   1700.8622     -230741.12      0             -216670.7       37055.081      1456734.6    
    268500   1702.863      -230683.28      0             -216596.31      37286.182      1456880.3    
    269000   1708.9087     -230704.65      0             -216567.67      37102.05       1457026      
    269500   1700.5124     -230627.8       0             -216560.28      37404.503      1457171.6    
    270000   1705.9351     -230672.43      0             -216560.04      37272.531      1457317.1    
    270500   1699.5195     -230626.65      0             -216567.34      37283.867      1457462.5    
    271000   1698.9033     -230634.68      0             -216580.47      37285.073      1457607.9    
    271500   1701.3411     -230672.28      0             -216597.9       36714.756      1457753.2    
    272000   1693.8499     -230630.49      0             -216618.08      37076.676      1457898.4    
    272500   1699.6523     -230696.05      0             -216635.64      36692.165      1458043.5    
    273000   1689.9816     -230623.76      0             -216643.35      36796.341      1458188.5    
    273500   1697.3338     -230671.76      0             -216630.53      36974.837      1458333.4    
    274000   1700.5055     -230656.86      0             -216589.39      36898.117      1458478.2    
    274500   1700.7076     -230608.11      0             -216538.98      36998.311      1458622.9    
    275000   1707.4857     -230633.15      0             -216507.94      37050.344      1458767.6    
    275500   1703.9057     -230595.26      0             -216499.67      37111.011      1458912.2    
    276000   1711.4243     -230669.19      0             -216511.4       36799.037      1459056.7    
    276500   1701.6875     -230617.2       0             -216539.96      36591.444      1459201.2    
    277000   1702.3531     -230665.83      0             -216583.08      36489.787      1459345.6    
    277500   1699.3036     -230691.7       0             -216634.18      36495.576      1459490      
    278000   1692.9082     -230681.52      0             -216676.91      36444.378      1459634.2    
    278500   1687.841      -230660.45      0             -216697.75      36353.761      1459778.3    
    279000   1690.5881     -230658.3       0             -216672.87      36134.886      1459922.3    
    279500   1699.5654     -230646.62      0             -216586.93      36456.293      1460066.2    
    280000   1695.6586     -230559.72      0             -216532.35      36747.394      1460210.1    
    280500   1699.5089     -230563.26      0             -216504.04      36544.339      1460353.8    
    281000   1707.4026     -230614.65      0             -216490.13      36220.547      1460497.5    
    281500   1706.0943     -230603.78      0             -216490.08      36254.184      1460641.1    
    282000   1696.1908     -230535.9       0             -216504.12      36585.209      1460784.6    
    282500   1703.4653     -230623.96      0             -216532.01      36144.624      1460928.1    
    283000   1705.925      -230679.31      0             -216567.01      35823.577      1461071.5    
    283500   1692.8483     -230602.4       0             -216598.28      35940.927      1461214.7    
    284000   1691.6194     -230610.09      0             -216616.14      35854.215      1461357.9    
    284500   1697.535      -230655.86      0             -216612.97      35619.514      1461501      
    285000   1705.4592     -230677.15      0             -216568.7       35676.258      1461644      
    285500   1697.3511     -230541.11      0             -216499.73      36150.298      1461786.9    
    286000   1706.6417     -230584.02      0             -216465.8       36211.097      1461929.7    
    286500   1703.721      -230555.27      0             -216461.21      36152.102      1462072.5    
    287000   1708.1251     -230605.03      0             -216474.53      35794.569      1462215.2    
    287500   1697.5348     -230543.88      0             -216500.99      36230.01       1462357.8    
    288000   1695.3151     -230561.32      0             -216536.79      35969.733      1462500.4    
    288500   1694.7396     -230592.96      0             -216573.19      35702.721      1462642.9    
    289000   1697.8312     -230646.84      0             -216601.49      35542.223      1462785.3    
    289500   1685.5015     -230562.31      0             -216618.97      35617.708      1462927.6    
    290000   1689.117      -230581.36      0             -216608.1       35705.114      1463069.8    
    290500   1698.7275     -230600.19      0             -216547.43      35486.583      1463211.9    
    291000   1704.7005     -230590.54      0             -216488.37      35627.748      1463354      
    291500   1699.6116     -230517.85      0             -216457.77      35886.914      1463495.9    
    292000   1702.3718     -230528.39      0             -216445.48      35807.676      1463637.8    
    292500   1700.3859     -230515.13      0             -216448.65      35633.069      1463779.6    
    293000   1695.1032     -230488.99      0             -216466.21      35723.088      1463921.3    
    293500   1698.347      -230548.74      0             -216499.13      35592.961      1464063      
    294000   1696.589      -230577.5       0             -216542.43      35205.681      1464204.6    
    294500   1697.7707     -230624.25      0             -216579.41      35118.295      1464346.1    
    295000   1698.3541     -230647.9       0             -216598.24      34917.279      1464487.5    
    295500   1693.9129     -230598.8       0             -216585.87      35242.679      1464628.8    
    296000   1699.3689     -230575.03      0             -216516.96      35082.927      1464770      
    296500   1699.5595     -230510.18      0             -216450.54      35525.061      1464911.2    
    297000   1701.7701     -230508.66      0             -216430.74      35502.822      1465052.2    
    297500   1703.6343     -230524.89      0             -216431.54      35536.335      1465193.2    
    298000   1702.131      -230526.97      0             -216446.06      35481.216      1465334.2    
    298500   1702.5262     -230555.42      0             -216471.24      35082.343      1465475.1    
    299000   1700.5254     -230572.36      0             -216504.73      35229.016      1465615.9    
    299500   1694.8553     -230558.09      0             -216537.36      34787.761      1465756.6    
    300000   1692.7651     -230564.19      0             -216560.76      34939.551      1465897.2    
    300500   1696.1378     -230596.91      0             -216565.58      34431.507      1466037.8    
    301000   1702.0942     -230611.52      0             -216530.91      34531.49       1466178.2    
    301500   1701.4216     -230535.15      0             -216460.1       35225.421      1466318.6    
    302000   1703.041      -230505.07      0             -216416.63      35071.4        1466458.8    
    302500   1709.2623     -230541.94      0             -216402.03      34955.242      1466599.1    
    303000   1707.1203     -230528.85      0             -216406.66      34795.62       1466739.2    
    303500   1706.1812     -230541.52      0             -216427.11      34950.115      1466879.4    
    304000   1702.323      -230543.67      0             -216461.17      34822.332      1467019.4    
    304500   1697.6901     -230546.96      0             -216502.79      34577.337      1467159.4    
    305000   1695.9606     -230569.66      0             -216539.79      34376.052      1467299.3    
    305500   1687.4681     -230520.96      0             -216561.34      34803.237      1467439.1    
    306000   1701.6141     -230630.93      0             -216554.29      34195.176      1467578.8    
    306500   1695.9373     -230517.13      0             -216487.45      34513.188      1467718.4    
    307000   1709.326      -230558.32      0             -216417.88      34607.488      1467858      
    307500   1699.6867     -230451.99      0             -216391.3       34755.048      1467997.5    
    308000   1704.7265     -230488.69      0             -216386.31      34928.223      1468136.9    
    308500   1708.0953     -230526.74      0             -216396.49      34446.184      1468276.3    
    309000   1702.7288     -230506.75      0             -216420.89      34460.824      1468415.6    
    309500   1694.3771     -230472.79      0             -216456.02      34595.238      1468554.8    
    310000   1700.9573     -230563.35      0             -216492.15      34303.59       1468694      
    310500   1696.2716     -230551.69      0             -216519.25      34285.726      1468833      
    311000   1694.164      -230540.52      0             -216525.52      33988.007      1468972      
    311500   1693.6905     -230502.58      0             -216491.49      34063.231      1469110.9    
    312000   1700.9694     -230485.77      0             -216414.47      34136.158      1469249.7    
    312500   1699.2155     -230428.31      0             -216371.52      34219.915      1469388.4    
    313000   1701.4749     -230437.4       0             -216361.91      34386.202      1469527.1    
    313500   1698.1624     -230418.33      0             -216370.24      34359.502      1469665.7    
    314000   1704.3209     -230491.55      0             -216392.52      34054.801      1469804.2    
    314500   1698.0723     -230473.01      0             -216425.67      34206.864      1469942.6    
    315000   1696.7294     -230499.38      0             -216463.15      33841.568      1470081      
    315500   1693.9013     -230506.15      0             -216493.32      33752.911      1470219.3    
    316000   1689.4255     -230485.31      0             -216509.51      33998.743      1470357.5    
    316500   1688.3218     -230464.14      0             -216497.47      34096.752      1470495.7    
    317000   1696.6801     -230469.59      0             -216433.77      33750.131      1470633.7    
    317500   1706.1642     -230485.34      0             -216371.06      33837.881      1470771.7    
    318000   1703.2874     -230435.92      0             -216345.44      34105.642      1470909.6    
    318500   1704.5272     -230440.42      0             -216339.68      33849.227      1471047.4    
    319000   1711.1863     -230507.66      0             -216351.84      33796.394      1471185.2    
    319500   1701.1557     -230453.47      0             -216380.62      34083.343      1471323      
    320000   1696.5772     -230456.12      0             -216421.15      33768.904      1471460.6    
    320500   1694.5379     -230478.81      0             -216460.71      33575.603      1471598.2    
    321000   1698.2612     -230534.12      0             -216485.22      33233.425      1471735.7    
    321500   1691.0151     -230476.27      0             -216487.32      33466.752      1471873.2    
    322000   1695.038      -230465.41      0             -216443.17      33420.369      1472010.5    
    322500   1700.7316     -230428.91      0             -216359.57      33706.126      1472147.7    
    323000   1705.2558     -230431.54      0             -216324.77      33772.473      1472284.9    
    323500   1712.24       -230483.68      0             -216319.14      33525.379      1472422      
    324000   1700.267      -230397.33      0             -216331.83      33789.677      1472559.1    
    324500   1702.5002     -230444.54      0             -216360.57      33289.763      1472696.1    
    325000   1701.8412     -230476.52      0             -216398         33359.252      1472833      
    325500   1695.8474     -230461.26      0             -216432.33      33281.005      1472969.9    
    326000   1690.3854     -230436.96      0             -216453.21      33309.853      1473106.6    
    326500   1697.098      -230494.19      0             -216454.91      33259.598      1473243.3    
    327000   1695.8252     -230443.07      0             -216414.32      33164.687      1473379.9    
    327500   1694.0444     -230349.12      0             -216335.11      33532.738      1473516.5    
    328000   1704.681      -230399.68      0             -216297.68      33434.999      1473652.9    
    328500   1708.3353     -230426.33      0             -216294.09      33338.773      1473789.3    
    329000   1706.1577     -230424         0             -216309.78      33170.199      1473925.7    
    329500   1699.9974     -230403.37      0             -216340.1       32976.02       1474062      
    330000   1700.1211     -230442.74      0             -216378.45      32908.275      1474198.2    
    330500   1694.0689     -230425.94      0             -216411.73      33059.116      1474334.4    
    331000   1692.6017     -230433.61      0             -216431.53      32666.011      1474470.4    
    331500   1696.614      -230465.93      0             -216430.66      32678.277      1474606.4    
    332000   1698.6777     -230437.78      0             -216385.44      32881.11       1474742.2    
    332500   1702.24       -230385.71      0             -216303.89      33008.005      1474878      
    333000   1705.6537     -230380.55      0             -216270.5       33053.199      1475013.7    
    333500   1708.5559     -230403.77      0             -216269.71      33004.485      1475149.4    
    334000   1705.5398     -230397.11      0             -216288         32942.697      1475285.1    
    334500   1694.9596     -230344.91      0             -216323.33      33108.169      1475420.7    
    335000   1694.979      -230386.58      0             -216364.83      32877.409      1475556.2    
    335500   1695.5291     -230423.77      0             -216397.47      32664.471      1475691.6    
    336000   1697.3679     -230454.38      0             -216412.87      32505.43       1475827      
    336500   1695.3055     -230430.43      0             -216405.98      32421.275      1475962.3    
    337000   1701.654      -230433.97      0             -216357.01      32681.532      1476097.5    
    337500   1706.222      -230387.55      0             -216272.79      33018.619      1476232.6    
    338000   1700.8378     -230315.42      0             -216245.2       33123.014      1476367.7    
    338500   1707.4714     -230375.73      0             -216250.63      32617.177      1476502.8    
    339000   1702.578      -230359.21      0             -216274.6       32854.548      1476637.8    
    339500   1697.087      -230349.53      0             -216310.34      32717.503      1476772.7    
    340000   1695.7143     -230373.69      0             -216345.86      32424.099      1476907.5    
    340500   1696.0666     -230403.3       0             -216372.56      32197.246      1477042.3    
    341000   1697.602      -230428         0             -216384.56      32092.067      1477177      
    341500   1694.0098     -230390.37      0             -216376.64      32369.409      1477311.6    
    342000   1704.9117     -230428         0             -216324.08      32139.833      1477446.1    
    342500   1706.4985     -230365.14      0             -216248.1       32428.541      1477580.6    
    343000   1709.7473     -230365.65      0             -216221.73      32477.084      1477715      
    343500   1701.5697     -230304.7       0             -216228.43      32893.553      1477849.3    
    344000   1705.5719     -230364.25      0             -216254.88      32173.234      1477983.7    
    344500   1702.8551     -230380.87      0             -216293.97      32089.874      1478117.9    
    345000   1692.9613     -230334.99      0             -216329.94      32203.288      1478252.1    
    345500   1693.5764     -230363.42      0             -216353.28      32280.479      1478386.2    
    346000   1702.094      -230440.52      0             -216359.91      31831.375      1478520.2    
    346500   1692.021      -230343.98      0             -216346.7       32272.497      1478654.1    
    347000   1687.603      -230252.13      0             -216291.4       32236.349      1478788      
    347500   1702.9229     -230294.81      0             -216207.35      32388.555      1478921.8    
    348000   1704.754      -230288.09      0             -216185.48      32243.959      1479055.5    
    348500   1701.9991     -230278.11      0             -216198.29      32179.735      1479189.2    
    349000   1703.3529     -230320.91      0             -216229.89      32221.017      1479322.9    
    349500   1698.7278     -230325.01      0             -216272.25      31985.391      1479456.5    
    350000   1703.1257     -230400.1       0             -216310.96      31664.496      1479590      
    350500   1697.928      -230380.35      0             -216334.2       31628.263      1479723.4    
    351000   1700.494      -230407.4       0             -216340.03      31438.482      1479856.8    
    351500   1691.9619     -230322.22      0             -216325.43      31908.716      1479990      
    352000   1703.0362     -230368.95      0             -216280.55      31722.4        1480123.2    
    352500   1707.7841     -230339.36      0             -216211.68      31519.551      1480256.3    
    353000   1708.9117     -230316.16      0             -216179.15      31740.067      1480389.3    
    353500   1702.113      -230263.65      0             -216182.89      31902.035      1480522.3    
    354000   1701.8951     -230281.64      0             -216202.68      31900.658      1480655.3    
    354500   1698.9273     -230287.08      0             -216232.67      31769.736      1480788.1    
    355000   1701.4632     -230340.71      0             -216265.32      31522.748      1480921      
    355500   1694.7662     -230313.46      0             -216293.47      31532.353      1481053.7    
    356000   1692.7066     -230313.82      0             -216310.87      31312.746      1481186.4    
    356500   1693.3262     -230318.59      0             -216310.51      31415.913      1481318.9    
    357000   1698.0608     -230326.65      0             -216279.41      31295.513      1481451.4    
    357500   1705.6001     -230312.59      0             -216202.98      31338.921      1481583.9    
    358000   1706.505      -230272.03      0             -216154.93      31376.612      1481716.2    
    358500   1703.6827     -230244.7       0             -216150.95      31608.447      1481848.5    
    359000   1707.1025     -230294.5       0             -216172.46      31333.16       1481980.8    
    359500   1704.0359     -230305.61      0             -216208.94      31350.317      1482113      
    360000   1697.2771     -230288.05      0             -216247.29      31380.789      1482245.2    
    360500   1696.9858     -230314.67      0             -216276.32      31418.035      1482377.3    
    361000   1696.8796     -230326.49      0             -216289.01      31132.417      1482509.3    
    361500   1696.0285     -230316.86      0             -216286.43      31065.76       1482641.2    
    362000   1693.7765     -230282.29      0             -216270.49      31106.829      1482773.1    
    362500   1695.2874     -230264.96      0             -216240.66      31001.911      1482904.8    
    363000   1702.5334     -230275.7       0             -216191.45      31195.272      1483036.5    
    363500   1708.8233     -230251.41      0             -216115.13      31381.847      1483168.1    
    364000   1713.0639     -230241.83      0             -216070.47      31252.363      1483299.7    
    364500   1710.8769     -230233.85      0             -216080.59      31375.949      1483431.2    
    365000   1710.2475     -230260.84      0             -216112.78      31187.435      1483562.8    
    365500   1702.1636     -230241.75      0             -216160.57      31055.396      1483694.3    
    366000   1701.0234     -230280.8       0             -216209.05      31094.224      1483825.7    
    366500   1700.6244     -230315.53      0             -216247.08      30596.694      1483957.1    
    367000   1686.6654     -230225.24      0             -216272.26      30933.319      1484088.3    
    367500   1689.5021     -230257.69      0             -216281.25      30815.602      1484219.6    
    368000   1694.2289     -230287.51      0             -216271.97      30756.487      1484350.7    
    368500   1694.0005     -230248.98      0             -216235.33      30975.219      1484481.7    
    369000   1705.358      -230287.68      0             -216180.08      30720.199      1484612.7    
    369500   1703.1795     -230233.02      0             -216143.43      30888.239      1484743.6    
    370000   1698.7614     -230190.07      0             -216137.03      31005.091      1484874.5    
    370500   1706.9576     -230268.46      0             -216147.62      30524.553      1485005.3    
    371000   1704.2989     -230266.11      0             -216167.27      30668.753      1485136      
    371500   1701.5781     -230264.07      0             -216187.73      30706.047      1485266.7    
    372000   1705.5077     -230312.77      0             -216203.93      30563.022      1485397.3    
    372500   1698.7889     -230266.41      0             -216213.14      30579.749      1485527.8    
    373000   1700.3357     -230281.14      0             -216215.08      30182.299      1485658.3    
    373500   1701.7738     -230288.81      0             -216210.85      30296.758      1485788.7    
    374000   1700.0917     -230265.61      0             -216201.56      30261.191      1485919      
    374500   1702.64       -230271.69      0             -216186.56      30815.799      1486049.2    
    375000   1705.2612     -230256.63      0             -216149.82      30718.16       1486179.4    
[...]
   1908000   1699.1738     -226321.97      0             -212265.52      1140.8041      1683244.3    
   1908500   1700.4856     -226328.71      0             -212261.41      951.28616      1683261.9    
   1909000   1702.7505     -226335.71      0             -212249.67      986.72031      1683279.4    
   1909500   1703.0982     -226313.54      0             -212224.62      1109.1178      1683296.9    
   1910000   1711.3128     -226339.49      0             -212182.62      984.31122      1683314.4    
   1910500   1703.6862     -226231.1       0             -212137.32      1220.3238      1683331.9    
   1911000   1711.4908     -226273.42      0             -212115.08      1057.3861      1683349.4    
   1911500   1711.5439     -226287.21      0             -212128.43      1070.4192      1683366.9    
   1912000   1701.7852     -226264.12      0             -212186.06      1115.9581      1683384.4    
   1912500   1697.1833     -226288.01      0             -212248.03      744.63484      1683401.9    
   1913000   1694.4589     -226290.48      0             -212273.04      954.00703      1683419.3    
   1913500   1698.799      -226329.68      0             -212276.33      873.72659      1683436.7    
   1914000   1694.691      -226289.35      0             -212269.98      859.52393      1683454      
   1914500   1699.2608     -226309.44      0             -212252.27      896.2136       1683471.3    
   1915000   1699.3496     -226284.16      0             -212226.26      981.30501      1683488.6    
   1915500   1707.5249     -226318.92      0             -212193.38      928.68964      1683505.9    
   1916000   1710.863      -226315.68      0             -212162.53      754.88519      1683523.1    
   1916500   1712.6443     -226301.44      0             -212133.55      1130.5501      1683540.3    
   1917000   1711.7664     -226272.61      0             -212111.99      1112.0588      1683557.6    
   1917500   1707.216      -226240.32      0             -212117.34      1150.4396      1683574.8    
   1918000   1696.7926     -226205.52      0             -212168.77      1367.1642      1683592.1    
   1918500   1703.9995     -226329.83      0             -212233.46      1010.6759      1683609.3    
   1919000   1691.5941     -226265.52      0             -212271.78      802.47942      1683626.5    
   1919500   1699.8727     -226347.1       0             -212284.87      949.22552      1683643.7    
   1920000   1694.0264     -226298.51      0             -212284.64      1177.4715      1683660.8    
   1920500   1694.6694     -226288.29      0             -212269.11      1022.9714      1683677.9    
   1921000   1700.5368     -226303.53      0             -212235.81      927.65037      1683695      
   1921500   1697.6232     -226233.45      0             -212189.82      1059.6842      1683712.1    
   1922000   1705.2479     -226260.37      0             -212153.68      1144.9113      1683729.2    
   1922500   1708.6838     -226276.16      0             -212141.04      834.19384      1683746.2    
   1923000   1708.234      -226288.72      0             -212157.32      614.13139      1683763.3    
   1923500   1693.1431     -226238.94      0             -212232.38      1237.0417      1683780.4    
   1924000   1691.0692     -226295.79      0             -212306.39      990.24551      1683797.5    
   1924500   1689.8706     -226302.07      0             -212322.58      849.46531      1683814.5    
   1925000   1696.5213     -226345.13      0             -212310.62      814.3858       1683831.5    
   1925500   1698.8656     -226333.37      0             -212279.47      808.11552      1683848.4    
   1926000   1697.972      -226284.22      0             -212237.71      891.88314      1683865.4    
   1926500   1704.8933     -226304.28      0             -212200.51      734.45961      1683882.3    
   1927000   1702.7042     -226264.96      0             -212179.3       1406.7667      1683899.2    
   1927500   1701.1763     -226247.94      0             -212174.93      976.32516      1683916      
   1928000   1699.1901     -226245.28      0             -212188.69      1017.144       1683932.9    
   1928500   1702.6636     -226310.31      0             -212225         855.35085      1683949.8    
   1929000   1688.3827     -226261         0             -212293.82      1047.479       1683966.6    
   1929500   1698.0799     -226397.35      0             -212349.95      911.62751      1683983.4    
   1930000   1686.6314     -226309.83      0             -212357.14      955.53459      1684000.2    
   1930500   1702.3213     -226418.82      0             -212336.34      580.77298      1684016.9    
   1931000   1699.5812     -226361.99      0             -212302.17      652.46331      1684033.6    
   1931500   1703.0084     -226352.36      0             -212264.19      951.90437      1684050.2    
   1932000   1694.8015     -226253.11      0             -212232.83      1036.1662      1684066.8    
   1932500   1703.6982     -226302.58      0             -212208.7       897.18595      1684083.4    
   1933000   1704.2326     -226292         0             -212193.71      933.23094      1684099.9    
   1933500   1704.4164     -226286.85      0             -212187.04      930.44977      1684116.5    
   1934000   1701.8921     -226270.67      0             -212191.73      1200.7016      1684133      
   1934500   1699.5076     -226276.71      0             -212217.5       1152.7817      1684149.6    
   1935000   1699.0646     -226335.86      0             -212280.31      789.3251       1684166.1    
   1935500   1685.2328     -226276.5       0             -212335.37      717.32723      1684182.5    
   1936000   1694.5949     -226366.34      0             -212347.77      911.47731      1684199      
   1936500   1689.3016     -226302.58      0             -212327.8       745.5362       1684215.4    
   1937000   1697.8363     -226329.46      0             -212284.07      875.98696      1684231.7    
   1937500   1700.4736     -226308.15      0             -212240.95      886.82426      1684248      
   1938000   1699.7941     -226279.49      0             -212217.91      901.51066      1684264.3    
   1938500   1698.7653     -226260.23      0             -212207.16      724.69155      1684280.6    
   1939000   1699.6508     -226262.87      0             -212202.47      1010.9895      1684296.8    
   1939500   1699.3505     -226259.37      0             -212201.46      961.51493      1684313      
   1940000   1700.2221     -226271.18      0             -212206.06      1010.6316      1684329.2    
   1940500   1693.936      -226233.58      0             -212220.46      827.81693      1684345.4    
   1941000   1704.1279     -226344.05      0             -212246.62      622.63766      1684361.5    
   1941500   1694.4439     -226304.94      0             -212287.62      821.01177      1684377.6    
   1942000   1687.8891     -226287.95      0             -212324.86      810.79528      1684393.6    
   1942500   1691.5569     -226328.01      0             -212334.57      778.01216      1684409.6    
   1943000   1694.3917     -226322.3       0             -212305.42      923.4865       1684425.6    
   1943500   1695.6322     -226267.24      0             -212240.09      837.81782      1684441.5    
   1944000   1705.4791     -226298.84      0             -212190.23      811.35428      1684457.4    
   1944500   1707.9409     -226303.7       0             -212174.72      846.38764      1684473.3    
   1945000   1705.874      -226288.04      0             -212176.16      776.59727      1684489.1    
   1945500   1698.2139     -226239.44      0             -212190.93      910.8597       1684505      
   1946000   1705.1351     -226321.49      0             -212215.73      723.17528      1684520.8    
   1946500   1699.6981     -226306.8       0             -212246.01      492.99501      1684536.7    
   1947000   1689.1131     -226248.4       0             -212275.17      720.69035      1684552.5    
   1947500   1696.7423     -226332.85      0             -212296.52      629.82438      1684568.2    
   1948000   1693.5412     -226320.33      0             -212310.48      665.79459      1684583.9    
   1948500   1688.1084     -226265.03      0             -212300.12      903.75325      1684599.6    
   1949000   1699.1317     -226308.71      0             -212252.61      896.97113      1684615.2    
   1949500   1694.77       -226214.27      0             -212194.25      1299.833       1684630.8    
   1950000   1706.276      -226273.15      0             -212157.95      1294.815       1684646.5    
   1950500   1698.0398     -226191.02      0             -212143.96      1183.4765      1684662.1    
   1951000   1708.2031     -226282.49      0             -212151.34      1182.0123      1684677.7    
   1951500   1697.1539     -226219.1       0             -212179.36      857.29003      1684693.3    
   1952000   1698.6716     -226274.22      0             -212221.93      723.89356      1684708.9    
   1952500   1695.7379     -226289.11      0             -212261.09      379.86357      1684724.5    
   1953000   1696.2627     -226313.96      0             -212281.59      703.86897      1684740      
   1953500   1696.2976     -226313.47      0             -212280.81      707.89627      1684755.5    
   1954000   1697.9311     -226287.22      0             -212241.06      989.86485      1684771      
   1954500   1701.4928     -226224.26      0             -212148.63      1030.702       1684786.4    
   1955000   1710.0847     -226253.26      0             -212106.55      811.12483      1684801.8    
   1955500   1715.4939     -226297.69      0             -212106.23      871.15351      1684817.3    
   1956000   1705.6748     -226243.35      0             -212133.13      702.2283       1684832.7    
   1956500   1700.4721     -226242.8       0             -212175.61      839.81861      1684848.1    
   1957000   1705.1739     -226321.22      0             -212215.13      704.86416      1684863.5    
   1957500   1702.2153     -226319.76      0             -212238.14      562.62761      1684878.9    
   1958000   1698.0396     -226293.4       0             -212246.34      548.76873      1684894.3    
   1958500   1694.0735     -226255.67      0             -212241.41      603.73758      1684909.6    
   1959000   1699.419      -226276.31      0             -212217.83      541.29019      1684924.9    
   1959500   1703.0097     -226251.09      0             -212162.91      730.28095      1684940.1    
   1960000   1705.6765     -226202.48      0             -212092.24      1183.4249      1684955.3    
   1960500   1718.365      -226281.51      0             -212066.3       571.37984      1684970.6    
   1961000   1709.608      -226223.09      0             -212080.32      802.14006      1684985.8    
   1961500   1704.1854     -226209.51      0             -212111.6       965.53674      1685001      
   1962000   1702.454      -226231.4       0             -212147.81      1140.1012      1685016.2    
   1962500   1701.0414     -226252.97      0             -212181.07      707.70361      1685031.4    
   1963000   1701.3437     -226283.79      0             -212209.39      870.7805       1685046.7    
   1963500   1699.8165     -226290.54      0             -212228.78      353.54079      1685061.9    
   1964000   1692.9772     -226244.6       0             -212239.41      748.05257      1685077      
   1964500   1697.6098     -226281.85      0             -212238.33      957.57307      1685092.1    
   1965000   1695.0046     -226244.87      0             -212222.91      877.91165      1685107.2    
   1965500   1704.3505     -226279.67      0             -212180.39      898.57055      1685122.3    
   1966000   1707.4933     -226245.9       0             -212120.62      759.63609      1685137.4    
   1966500   1708.976      -226224.19      0             -212086.65      1140.2029      1685152.4    
   1967000   1706.3087     -226202.93      0             -212087.45      988.34735      1685167.5    
   1967500   1700.9299     -226194.54      0             -212123.56      1386.745       1685182.6    
   1968000   1703.4872     -226271.07      0             -212178.94      514.41103      1685197.7    
   1968500   1702.1652     -226296.69      0             -212215.49      623.17517      1685212.7    
   1969000   1698.1398     -226272.79      0             -212224.89      668.73611      1685227.7    
   1969500   1698.7556     -226275.84      0             -212222.85      481.69609      1685242.7    
   1970000   1702.9582     -226300.81      0             -212213.06      586.19         1685257.7    
   1970500   1701.3393     -226268.73      0             -212194.37      470.71208      1685272.6    
   1971000   1702.0948     -226248.37      0             -212167.76      942.62987      1685287.5    
   1971500   1709.8181     -226281.14      0             -212136.64      890.07483      1685302.4    
   1972000   1706.6018     -226229.77      0             -212111.87      1057.6571      1685317.2    
   1972500   1707.8001     -226226.5       0             -212098.69      650.25277      1685332.1    
   1973000   1710.8336     -226265.56      0             -212112.65      976.4414       1685346.9    
   1973500   1703.4563     -226258.65      0             -212166.78      595.6105       1685361.8    
   1974000   1698.0293     -226275.04      0             -212228.06      614.5909       1685376.6    
   1974500   1699.2464     -226318.31      0             -212261.26      551.41899      1685391.5    
   1975000   1695.24       -226293.37      0             -212269.47      766.42569      1685406.3    
   1975500   1697.7671     -226301.23      0             -212256.41      915.06194      1685421      
   1976000   1698.6564     -226276.89      0             -212224.72      831.49101      1685435.8    
   1976500   1703.934      -226278.03      0             -212182.2       672.53454      1685450.6    
   1977000   1703.4525     -226237.05      0             -212145.21      803.60065      1685465.3    
   1977500   1703.8572     -226220.5       0             -212125.31      883.26653      1685480.1    
   1978000   1701.9198     -226208.72      0             -212129.55      1311.8296      1685494.8    
   1978500   1706.4162     -226282.26      0             -212165.9       695.96088      1685509.6    
   1979000   1693.5241     -226271.21      0             -212261.49      896.10216      1685524.3    
   1979500   1688.1593     -226274.34      0             -212309.01      533.94016      1685539.1    
   1980000   1693.9009     -226316.64      0             -212303.81      769.95271      1685553.7    
   1980500   1700.8465     -226345.57      0             -212275.28      463.96987      1685568.4    
   1981000   1705.0917     -226337.44      0             -212232.03      545.88849      1685583      
   1981500   1697.1749     -226228.91      0             -212189         1004.3148      1685597.6    
   1982000   1699.5042     -226217.45      0             -212158.26      709.64486      1685612.2    
   1982500   1701.3042     -226215.11      0             -212141.04      777.92785      1685626.8    
   1983000   1704.0077     -226234.35      0             -212137.91      661.37771      1685641.3    
   1983500   1702.0595     -226230.92      0             -212150.6       850.53193      1685655.8    
   1984000   1706.3854     -226303.65      0             -212187.54      455.27255      1685670.3    
   1984500   1685.4048     -226194.57      0             -212252.03      913.40379      1685684.8    
   1985000   1691.9471     -226292.39      0             -212295.72      166.09112      1685699.3    
   1985500   1686.3993     -226250.44      0             -212299.67      310.56121      1685713.7    
   1986000   1692.2303     -226272.65      0             -212273.64      493.93859      1685728.1    
   1986500   1691.9386     -226237.13      0             -212240.53      741.01713      1685742.4    
   1987000   1696.4605     -226248.9       0             -212214.89      883.34315      1685756.6    
   1987500   1702.2485     -226278.57      0             -212196.69      709.53967      1685770.9    
   1988000   1695.3445     -226207.69      0             -212182.92      702.01087      1685785.1    
   1988500   1697.7747     -226214.86      0             -212169.98      500.19421      1685799.3    
   1989000   1707.7031     -226287.11      0             -212160.11      582.91573      1685813.5    
   1989500   1697.2597     -226193.97      0             -212153.35      863.06994      1685827.6    
   1990000   1703.1148     -226246.85      0             -212157.8       685.87875      1685841.7    
   1990500   1699.0917     -226237.65      0             -212181.88      987.52117      1685855.9    
   1991000   1691.7193     -226224.24      0             -212229.45      1001.0356      1685870      
   1991500   1686.837      -226225.65      0             -212271.26      849.78299      1685884.1    
   1992000   1693.9529     -226298.69      0             -212285.43      288.46945      1685898.1    
   1992500   1699.9635     -226330.54      0             -212267.56      438.52442      1685912.1    
   1993000   1690.0757     -226199.62      0             -212218.43      888.64106      1685926.1    
   1993500   1699.863      -226227.06      0             -212164.91      776.15012      1685940      
   1994000   1699.9175     -226200.96      0             -212138.35      996.63182      1685954      
   1994500   1702.7982     -226219.86      0             -212133.43      901.30312      1685967.9    
   1995000   1712.139      -226306.46      0             -212142.76      847.30288      1685981.8    
   1995500   1705.7113     -226273.03      0             -212162.5       524.88236      1685995.7    
   1996000   1702.3682     -226268.3       0             -212185.43      594.34423      1686009.6    
   1996500   1690.8724     -226197.85      0             -212210.08      974.12886      1686023.5    
   1997000   1699.0557     -226291.68      0             -212236.2       648.06373      1686037.3    
   1997500   1691.8866     -226263.59      0             -212267.42      473.13611      1686051.2    
   1998000   1692.4204     -226309.9       0             -212309.31      399.42898      1686065      
   1998500   1690.0314     -226323.46      0             -212342.65      694.66626      1686078.8    
   1999000   1686.1099     -226288.1       0             -212339.72      459.97223      1686092.5    
   1999500   1695.6373     -226311.31      0             -212284.11      634.87156      1686106.2    
   2000000   1698.4006     -226267.47      0             -212217.41      649.04064      1686119.8    
Loop time of 76502.4 on 10 procs for 2000000 steps with 64000 atoms

Performance: 2.259 ns/day, 10.625 hours/ns, 26.143 timesteps/s
99.4% CPU use with 10 MPI tasks x no OpenMP threads

MPI task timing breakdown:
Section |  min time  |  avg time  |  max time  |%varavg| %total
---------------------------------------------------------------
Pair    | 57015      | 60074      | 66032      |1035.9 | 78.53
Neigh   | 1847.4     | 1926.1     | 2102       | 205.9 |  2.52
Comm    | 7416.6     | 13562      | 16701      |2245.1 | 17.73
Output  | 20.819     | 20.832     | 20.914     |   0.6 |  0.03
Modify  | 754.49     | 776.02     | 813.82     |  74.8 |  1.01
Other   |            | 143.6      |            |       |  0.19

Nlocal:           6400 ave        6510 max        6309 min
Histogram: 1 0 2 1 1 4 0 0 0 1
Nghost:        12722.5 ave       12790 max       12615 min
Histogram: 1 0 0 0 1 2 3 2 0 1
Neighs:         678887 ave      690222 max      669746 min
Histogram: 3 1 0 0 1 0 2 2 0 1

Total # of neighbors = 6788869
Ave neighs/atom = 106.07608
Neighbor list builds = 77964
Dangerous builds = 0
Total wall time: 21:15:03
