LAMMPS (23 Jun 2022 - Update 4)
Lattice spacing in x,y,z = 5.5392 5.5392 5.5392
Created orthogonal box = (0 0 0) to (110.784 110.784 110.784)
  1 by 2 by 5 MPI processor grid
Created 64000 atoms
  using lattice units in orthogonal box = (0 0 0) to (110.784 110.784 110.784)
  create_atoms CPU = 0.002 seconds
32000 atoms in group Ba
32000 atoms in group O
WARNING: 23463 of 50000 force values in table Vash_11 are inconsistent with -dE/dr.
WARNING:  Should only be flagged at inflection points (../pair_table.cpp:463)
WARNING: 43814 of 50000 distance values in table 1e-06 with relative error
WARNING:  over Vash_11 to re-computed values (../pair_table.cpp:471)
WARNING: 23576 of 50000 force values in table Vash_12 are inconsistent with -dE/dr.
WARNING:  Should only be flagged at inflection points (../pair_table.cpp:463)
WARNING: 43814 of 50000 distance values in table 1e-06 with relative error
WARNING:  over Vash_12 to re-computed values (../pair_table.cpp:471)
WARNING: 23794 of 50000 force values in table Vash_22 are inconsistent with -dE/dr.
WARNING:  Should only be flagged at inflection points (../pair_table.cpp:463)
WARNING: 43814 of 50000 distance values in table 1e-06 with relative error
WARNING:  over Vash_22 to re-computed values (../pair_table.cpp:471)
Generated 0 of 1 mixed pair_coeff terms from geometric mixing rule
Neighbor list info ...
  update every 8 steps, delay 0 steps, check yes
  max neighbors/atom: 2000, page size: 100000
  master list distance cutoff = 11
  ghost atom cutoff = 11
  binsize = 5.5, bins = 21 21 21
  1 neighbor lists, perpetual/occasional/extra = 1 0 0
  (1) pair table, perpetual
      attributes: half, newton on
      pair build: half/bin/atomonly/newton
      stencil: half/bin/3d
      bin: standard
Setting up Verlet run ...
  Unit style    : metal
  Current step  : 0
  Time step     : 0.001
Per MPI rank memory allocation (min/avg/max) = 8.384 | 9.056 | 9.533 Mbytes
   Step          Temp          E_pair         E_mol          TotEng         Press          Volume    
         0   1500          -243821.04      0             -231412.26      9435.5064      1359662.5    
       500   770.19546     -237539.17      0             -231167.72      35533.094      1359664.3    
      1000   819.59002     -237584.31      0             -230804.23      35919.007      1359669.8    
      1500   835.73602     -237299.77      0             -230386.13      37318.13       1359679.1    
      2000   868.17437     -237110.24      0             -229928.25      38531.765      1359692.3    
      2500   897.11907     -236859.22      0             -229437.79      39725.304      1359709.6    
      3000   935.09499     -236654.38      0             -228918.79      40908.861      1359731      
      3500   965.71461     -236364.49      0             -228375.6       42584.414      1359756.7    
      4000   1005.2393     -236126.65      0             -227810.78      44012.397      1359786.8    
      4500   1042.634      -235853.02      0             -227227.81      45339.41       1359821.5    
      5000   1079.033      -235556.19      0             -226629.86      46850.586      1359861      
      5500   1119.5801     -235282.27      0             -226020.52      48301.632      1359905.4    
      6000   1156.3716     -234969.72      0             -225403.62      50012.037      1359954.9    
      6500   1198.5945     -234698.35      0             -224782.96      51731.567      1360009.6    
      7000   1240.5977     -234426.8       0             -224163.93      53138.512      1360069.7    
      7500   1281.3293     -234151.19      0             -223551.37      54560.819      1360135.3    
      8000   1321.5193     -233883.88      0             -222951.58      55786.17       1360206.6    
      8500   1353.6761     -233569.29      0             -222370.98      57454.281      1360283.8    
      9000   1387.2711     -233293.54      0             -221817.32      58795.035      1360366.9    
      9500   1424.3576     -233081.55      0             -221298.52      59779.395      1360456.2    
     10000   1454.1316     -232855.4       0             -220826.07      61019.44       1360551.7    
     10500   1487.5367     -232715.97      0             -220410.29      61878.077      1360653.5    
     11000   1501.4383     -232487.67      0             -220066.99      62870.591      1360761.8    
     11500   1518.907      -232378.16      0             -219812.97      63445.1        1360876.6    
     12000   1531.8865     -232341.84      0             -219669.27      63774.843      1360997.8    
     12500   1531.4613     -232324.97      0             -219655.92      63617.914      1361125.7    
     13000   1523.6051     -232377.4       0             -219773.35      63423.887      1361260      
     13500   1504.907      -232427.66      0             -219978.28      62921.055      1361400.7    
     14000   1494.7834     -232567.44      0             -220201.81      62138.316      1361547.8    
     14500   1481.3631     -232642.13      0             -220387.52      61735.808      1361701.1    
     15000   1481.3398     -232754.14      0             -220499.72      61100.081      1361860.6    
     15500   1477.3913     -232741.24      0             -220519.49      61143.282      1362026      
     16000   1475.9077     -232652.35      0             -220442.87      61355.308      1362197.4    
     16500   1498.4763     -232689.82      0             -220293.64      61271.964      1362374.7    
     17000   1504.986      -232569.18      0             -220119.16      62008.77       1362557.8    
     17500   1515.2474     -232499.41      0             -219964.49      62034.233      1362746.7    
     18000   1521.2103     -232449.5       0             -219865.26      62360.735      1362941.3    
     18500   1520.3441     -232420.54      0             -219843.46      62234.709      1363141.5    
     19000   1517.9193     -232460.49      0             -219903.47      62062.539      1363347.2    
     19500   1505.2448     -232480.48      0             -220028.31      61917.897      1363558.2    
     20000   1500.1462     -232589.4       0             -220179.41      61214.719      1363774.4    
     20500   1492.9528     -232666.59      0             -220316.11      60797.9        1363995.6    
     21000   1482.3612     -232669.66      0             -220406.8       60587.101      1364221.6    
     21500   1491.0523     -232765.4       0             -220430.64      60153.294      1364452.1    
     22000   1490.8361     -232716.6       0             -220383.63      60211.104      1364687      
     22500   1493.9738     -232637.11      0             -220278.18      60385.753      1364926.2    
     23000   1502.869      -232578.61      0             -220146.09      60754.27       1365169.3    
     23500   1506.2428     -232483.22      0             -220022.79      61100.132      1365416.4    
     24000   1513.7484     -232461.83      0             -219939.32      61105.862      1365667.1    
     24500   1510.8983     -232414.08      0             -219915.15      60905.952      1365921.3    
     25000   1508.998      -232439.26      0             -219956.05      60994.742      1366178.7    
     25500   1505.5443     -232504.56      0             -220049.92      60381.917      1366439.1    
     26000   1498.0854     -232564.86      0             -220171.92      60027.557      1366702.2    
     26500   1490.7339     -232618.69      0             -220286.56      59628.817      1366967.7    
     27000   1487.0194     -232667.56      0             -220366.17      59099.989      1367235.4    
     27500   1482.2166     -232654.68      0             -220393.01      59093.146      1367505      
     28000   1492.6553     -232707.06      0             -220359.04      58814.031      1367776.3    
     28500   1494.6558     -232639.01      0             -220274.44      59037.64       1368048.9    
     29000   1507.3621     -232633.29      0             -220163.6       59263.407      1368322.6    
     29500   1508.9011     -232540.05      0             -220057.64      59430.076      1368597.4    
     30000   1516.0313     -232525.57      0             -219984.17      59370.991      1368872.8    
     30500   1516.6564     -232506.78      0             -219960.21      59389.304      1369148.8    
     31000   1507.5942     -232463.07      0             -219991.47      59449.293      1369425      
     31500   1505.6401     -232523.17      0             -220067.73      59124.962      1369701.3    
     32000   1500.622      -232583.41      0             -220169.49      58618.599      1369977.4    
     32500   1497.2511     -232654.71      0             -220268.67      58219.043      1370253.1    
     33000   1489.0298     -232657.21      0             -220339.18      58009.952      1370528.2    
     33500   1482.2246     -232625.47      0             -220363.74      57917.699      1370802.5    
     34000   1489.373      -232659.42      0             -220338.55      57874.544      1371075.8    
     34500   1489.7207     -232591.55      0             -220267.81      57900.418      1371348      
     35000   1497.4955     -232562.13      0             -220174.07      58029.713      1371618.9    
     35500   1501.2873     -232500.59      0             -220081.16      58451.217      1371888.5    
     36000   1508.5628     -232494.11      0             -220014.5       58104.642      1372156.6    
     36500   1513.4663     -232509.63      0             -219989.45      58029.121      1372423.3    
     37000   1511.7176     -232518.43      0             -220012.71      57873.884      1372688.3    
     37500   1501.3446     -232497.66      0             -220077.76      57672.383      1372951.7    
     38000   1501.092      -232583.64      0             -220165.83      57223.313      1373213.3    
     38500   1495.7581     -232626.72      0             -220253.03      56949.815      1373473.1    
     39000   1490.3327     -232646.62      0             -220317.81      56660.465      1373731.2    
     39500   1486.1893     -232638.96      0             -220344.43      56821.817      1373987.3    
     40000   1488.3771     -232638.32      0             -220325.69      56456.62       1374241.6    
     40500   1495.312      -232636.94      0             -220266.95      56483.607      1374494      
     41000   1502.4873     -232613.04      0             -220183.69      56681.853      1374744.6    
     41500   1500.9028     -232515.65      0             -220099.41      56647.316      1374993.4    
     42000   1512.3275     -232546.37      0             -220035.61      56520.381      1375240.5    
     42500   1511.6173     -232512.89      0             -220008         56724.533      1375486      
     43000   1510.5994     -232520.21      0             -220023.75      56683.206      1375729.9    
     43500   1504.584      -232526.19      0             -220079.49      56467.883      1375972.3    
     44000   1498.8814     -232557.42      0             -220157.89      56083.792      1376213.3    
     44500   1500.9424     -232655.25      0             -220238.67      55674.303      1376452.8    
     45000   1491.6522     -232640.74      0             -220301.02      55575.38       1376690.9    
     45500   1493.5398     -232683.45      0             -220328.11      55200.002      1376927.8    
     46000   1492.5778     -232662.6       0             -220315.22      55361.36       1377163.4    
     46500   1497.8001     -232654.62      0             -220264.04      55022.999      1377398      
     47000   1499.6752     -232595.97      0             -220189.88      55410.794      1377631.5    
     47500   1501.5715     -232533.97      0             -220112.19      55589.377      1377864.1    
     48000   1511.6953     -232556.5       0             -220050.97      55580.497      1378095.8    
     48500   1513.9254     -232546.74      0             -220022.76      55531.182      1378326.9    
     49000   1516.9366     -232584.61      0             -220035.72      55017.826      1378557.3    
     49500   1502.0261     -232511.74      0             -220086.2       55396.849      1378787.2    
     50000   1502.447      -232587.14      0             -220158.12      54989.478      1379016.6    
     50500   1496.4863     -232611.55      0             -220231.83      54696.109      1379245.6    
     51000   1495.0335     -232656.49      0             -220288.8       54481.512      1379474.2    
     51500   1490.0928     -232641.59      0             -220314.77      54200.659      1379702.5    
     52000   1488.0268     -232611.72      0             -220301.99      54360.583      1379930.5    
     52500   1491.357      -232591.68      0             -220254.4       54308.51       1380158.4    
     53000   1492.9186     -232534.11      0             -220183.91      54511.542      1380386.1    
     53500   1507.1029     -232578.39      0             -220110.85      54371.085      1380613.8    
     54000   1501.0809     -232471.92      0             -220054.2       54349.121      1380841.6    
     54500   1512.2147     -232537.99      0             -220028.17      54302.654      1381069.4    
     55000   1508.6297     -232520         0             -220039.83      54315.693      1381297.4    
     55500   1502.8623     -232517.65      0             -220085.19      54164.217      1381525.6    
     56000   1505.8727     -232610.16      0             -220152.79      53759.345      1381753.9    
     56500   1488.4632     -232537.11      0             -220223.77      53958.637      1381982.5    
     57000   1493.643      -232635.67      0             -220279.48      53472.753      1382211.4    
     57500   1490.1775     -232634.14      0             -220306.62      53365.17       1382440.4    
     58000   1490.1499     -232625.34      0             -220298.04      53289.889      1382669.7    
     58500   1498.0591     -232649.11      0             -220256.38      53000          1382899.3    
     59000   1496.2615     -232570.75      0             -220192.9       53239.166      1383129.2    
     59500   1503.2973     -232559.66      0             -220123.6       53276.207      1383359.4    
     60000   1511.6132     -232571.62      0             -220066.77      53325.52       1383590      
     60500   1504.9525     -232485.72      0             -220035.97      53552.967      1383820.9    
     61000   1507.3964     -232508.32      0             -220038.35      53320.653      1384052.1    
     61500   1507.128      -232541.49      0             -220073.74      53015.246      1384283.8    
     62000   1501.6966     -232556.01      0             -220133.19      52769.06       1384515.7    
     62500   1498.5617     -232596.93      0             -220200.05      52736.626      1384748      
     63000   1494.0981     -232617.6       0             -220257.64      52181.811      1384980.6    
     63500   1492.5755     -232637.09      0             -220289.72      52065.745      1385213.4    
     64000   1494.0824     -232648.56      0             -220288.74      51944.7        1385446.4    
     64500   1490.0048     -232581.63      0             -220255.53      52188.155      1385679.6    
     65000   1496.8594     -232581.31      0             -220198.51      52235.435      1385913      
     65500   1500.9516     -232547.99      0             -220131.33      52284.826      1386146.6    
     66000   1501.5934     -232494.91      0             -220072.95      52367.088      1386380.4    
     66500   1506.0609     -232496.71      0             -220037.79      52332.325      1386614.3    
     67000   1508.7838     -232517.08      0             -220035.63      52119.419      1386848.3    
     67500   1506.9111     -232532.21      0             -220066.25      51906.495      1387082.4    
     68000   1502.9755     -232555.08      0             -220121.69      51676.059      1387316.6    
     68500   1495.1137     -232554.33      0             -220185.97      51685.457      1387550.8    
     69000   1498.744      -232640.31      0             -220241.92      51049.134      1387784.9    
     69500   1482.3253     -232537.77      0             -220275.2       51594.784      1388019      
     70000   1491.4104     -232614.58      0             -220276.86      51183.006      1388252.9    
     70500   1491.5499     -232583.94      0             -220245.06      51005.065      1388486.6    
     71000   1500.6095     -232604         0             -220190.18      51042.43       1388720.2    
     71500   1501.5825     -232548.93      0             -220127.06      51229.237      1388953.5    
     72000   1501.1151     -232489.86      0             -220071.85      51434.209      1389186.6    
     72500   1514.258      -232564.53      0             -220037.8       51018.253      1389419.4    
     73000   1509.5798     -232522.06      0             -220034.03      51129.916      1389652      
     73500   1506.8128     -232527.67      0             -220062.53      50903.329      1389884.2    
     74000   1506.8246     -232579.48      0             -220114.24      50582.205      1390116.1    
     74500   1498.4369     -232570.45      0             -220174.6       50616.457      1390347.6    
     75000   1492.5937     -232575.26      0             -220227.75      50217.168      1390578.6    
     75500   1490.3487     -232589.56      0             -220260.62      50031.361      1390809.2    
     76000   1492.0356     -232605.73      0             -220262.83      50251.432      1391039.2    
     76500   1492.0201     -232576.89      0             -220234.12      49959.859      1391268.6    
     77000   1500.3276     -232593.49      0             -220182         49758.404      1391497.5    
     77500   1499.4313     -232525.16      0             -220121.09      50140.363      1391725.8    
     78000   1505.8825     -232525.46      0             -220068.01      50182.028      1391953.4    
     78500   1509.7883     -232525.13      0             -220035.38      49933.283      1392180.5    
     79000   1504.7074     -232479.04      0             -220031.32      50042.08       1392406.9    
     79500   1504.6659     -232503.78      0             -220056.4       49902.044      1392632.7    
     80000   1502.8834     -232536.37      0             -220103.74      49837.605      1392857.8    
     80500   1498.5352     -232556.72      0             -220160.06      49415.149      1393082.3    
     81000   1494.0873     -232570.46      0             -220210.59      49373.625      1393305.9    
     81500   1493.0587     -232593.04      0             -220241.68      48913.763      1393528.9    
     82000   1491.8871     -232586.71      0             -220245.04      48911.16       1393751      
     82500   1498.2968     -232613.97      0             -220219.28      48824.163      1393972.3    
     83000   1496.5884     -232552         0             -220171.44      49103.38       1394192.9    
     83500   1505.5767     -232568.92      0             -220114.01      49004.945      1394412.6    
     84000   1502.6855     -232493.65      0             -220062.66      49103.727      1394631.6    
     84500   1502.6564     -232461.54      0             -220030.78      49180.431      1394849.8    
     85000   1502.1506     -232452.1       0             -220025.53      49096.269      1395067.1    
     85500   1499.3849     -232450.56      0             -220046.87      48939.89       1395283.8    
     86000   1508.2292     -232568.23      0             -220091.38      48504.802      1395499.6    
     86500   1499.6677     -232552.07      0             -220146.04      48480.282      1395714.6    
     87000   1495.8912     -232569.9       0             -220195.11      48248.856      1395928.8    
     87500   1498.4097     -232621.6       0             -220225.98      48118.011      1396142.2    
     88000   1491.7278     -232570.37      0             -220230.03      48246.567      1396354.7    
     88500   1493.5321     -232561.55      0             -220206.27      48075.114      1396566.5    
     89000   1499.7657     -232567.6       0             -220160.76      48140.01       1396777.4    
     89500   1499.834      -232512.77      0             -220105.36      48269.24       1396987.5    
     90000   1502.0489     -232479.84      0             -220054.11      48402.576      1397196.8    
     90500   1503.4891     -232459.1       0             -220021.46      48251.491      1397405.4    
     91000   1506.7897     -232480.13      0             -220015.19      47953.989      1397613.2    
     91500   1508.8005     -232516.83      0             -220035.25      47904.43       1397820.3    
     92000   1496.9629     -232460.41      0             -220076.76      48207.953      1398026.6    
     92500   1499.6695     -232534.18      0             -220128.14      47768.909      1398232.2    
     93000   1500.6484     -232589.17      0             -220175.03      47164.118      1398437.1    
     93500   1492.55       -232553.2       0             -220206.06      47183.943      1398641.3    
     94000   1494.0902     -232572.8       0             -220212.91      47271.031      1398844.6    
     94500   1496.2598     -232572.05      0             -220194.21      47168.103      1399047.3    
     95000   1498.3773     -232549.52      0             -220154.16      47057.606      1399249.2    
     95500   1501.5682     -232524.57      0             -220102.82      47268.032      1399450.5    
     96000   1499.0772     -232455.71      0             -220054.57      47482.941      1399651.1    
     96500   1503.5835     -232461.37      0             -220022.95      47413.574      1399851      
     97000   1510.2762     -232507.33      0             -220013.54      47059.937      1400050.3    
     97500   1501.8558     -232454.31      0             -220030.18      47104.775      1400249      
     98000   1503.4388     -232503.68      0             -220066.45      46844.989      1400447.1    
     98500   1498.912      -232513.62      0             -220113.84      46728.818      1400644.7    
     99000   1496.4115     -232537.12      0             -220158.03      46583.316      1400841.6    
     99500   1499.0225     -232589.33      0             -220188.63      46295.281      1401037.9    
    100000   1491.6477     -232535.61      0             -220195.92      46309.331      1401233.6    
    100500   1493.996      -232536.64      0             -220177.53      46406.253      1401428.7    
    101000   1505.4269     -232591.9       0             -220138.22      46167.922      1401623.3    
    101500   1503.5625     -232527.71      0             -220089.45      46392.63       1401817.3    
    102000   1503.8988     -232484.35      0             -220043.32      46431.113      1402010.8    
    102500   1506.3846     -232473.58      0             -220011.98      46465.55       1402203.8    
    103000   1500.348      -232414.1       0             -220002.45      46618.691      1402396.3    
    103500   1505.8606     -232474.28      0             -220017.01      46428.41       1402588.4    
    104000   1504.7562     -232500.44      0             -220052.31      46320.225      1402780      
    104500   1497.0476     -232481.52      0             -220097.16      46018.528      1402971.2    
    105000   1499.7742     -232546.31      0             -220139.4       45797.298      1403161.9    
    105500   1492.9489     -232519.77      0             -220169.32      45814.674      1403352.1    
    106000   1491.1301     -232513.37      0             -220177.96      45744.835      1403541.9    
    106500   1491.9865     -232504.69      0             -220162.21      45770.701      1403731.3    
    107000   1500.1133     -232535.69      0             -220125.97      45599.646      1403920.2    
    107500   1500.1041     -232487.62      0             -220077.98      45619.608      1404108.7    
    108000   1506.1179     -232491.04      0             -220031.65      45542.92       1404296.9    
    108500   1504.8902     -232448.93      0             -219999.7       45786.46       1404484.6    
    109000   1501.3884     -232410.09      0             -219989.83      45698.471      1404672      
    109500   1504.2218     -232447.26      0             -220003.56      45642.695      1404859.1    
    110000   1503.9814     -232478.69      0             -220036.97      45556.135      1405045.8    
    110500   1497.1703     -232467.63      0             -220082.26      45299.94       1405232.2    
    111000   1501.6482     -232547.96      0             -220125.55      44957.105      1405418.2    
    111500   1498.5943     -232552.06      0             -220154.91      45080.346      1405603.9    
    112000   1492.5363     -232510.11      0             -220163.08      44739.35       1405789.2    
    112500   1497.308      -232533.42      0             -220146.91      44608.556      1405974.2    
    113000   1495.48       -232482.54      0             -220111.15      44820.197      1406158.8    
    113500   1498.7007     -232462.23      0             -220064.2       45060.505      1406343.1    
    114000   1497.3168     -232405.1       0             -220018.51      45116.59       1406527.2    
    114500   1508.1248     -232462.93      0             -219986.93      44894.014      1406710.9    
    115000   1505.4945     -232431.44      0             -219977.21      44989.783      1406894.4    
    115500   1504.449      -232436.57      0             -219990.99      44821.35       1407077.6    
    116000   1500.2992     -232435.4       0             -220024.14      44676.841      1407260.5    
    116500   1496.7796     -232450.48      0             -220068.34      44579.826      1407443.2    
    117000   1494.5219     -232472.98      0             -220109.51      44503.948      1407625.6    
    117500   1494.1502     -232498.66      0             -220138.27      44259.251      1407807.7    
    118000   1497.6061     -232534.52      0             -220145.54      44102.339      1407989.5    
    118500   1496.1604     -232507.04      0             -220130.02      44041.815      1408171      
    119000   1498.0688     -232486.55      0             -220093.74      44167.75       1408352.3    
    119500   1500.9479     -232465.15      0             -220048.53      44242.424      1408533.3    
    120000   1503.1136     -232440.24      0             -220005.7       44059.538      1408714.1    
    120500   1500.3105     -232387.26      0             -219975.92      44065.459      1408894.7    
    121000   1500.9073     -232383.38      0             -219967.1       44349.26       1409075      
    121500   1508.0168     -232456.96      0             -219981.86      44187.887      1409255.1    
    122000   1499.81       -232421.65      0             -220014.44      43944.397      1409435.1    
    122500   1499.8849     -232464.88      0             -220057.05      43724.59       1409614.8    
    123000   1496.3536     -232475.77      0             -220097.16      43687.635      1409794.2    
    123500   1493.3027     -232477.42      0             -220124.04      43510.237      1409973.5    
    124000   1497.9546     -232521.39      0             -220129.53      43294.189      1410152.5    
    124500   1494.0357     -232471.5       0             -220112.06      43378.722      1410331.2    
    125000   1500.5403     -232487.19      0             -220073.94      43419.921      1410509.7    
    125500   1499.054      -232429.44      0             -220028.49      43616.909      1410688      
    126000   1508.5545     -232466.02      0             -219986.47      43524.128      1410866.1    
    126500   1506.7937     -232424.14      0             -219959.16      43376.951      1411044      
    127000   1510.1631     -232445.69      0             -219952.84      43304.515      1411221.7    
    127500   1502.2455     -232396.41      0             -219969.05      43495.466      1411399.2    
    128000   1500.6507     -232416.96      0             -220002.79      43384.157      1411576.5    
    128500   1502.4171     -232473.42      0             -220044.65      42956.437      1411753.7    
    129000   1495.0559     -232450.83      0             -220082.95      42998.375      1411930.6    
    129500   1492.2696     -232451.12      0             -220106.29      43034.801      1412107.3    
    130000   1493.8292     -232467.08      0             -220109.35      42812.069      1412283.8    
    130500   1495.682      -232464.65      0             -220091.59      42701.706      1412460.1    
    131000   1495.9647     -232432.35      0             -220056.95      42891.84       1412636.2    
    131500   1500.8056     -232429.18      0             -220013.73      42842.901      1412812      
    132000   1501.1521     -232391.98      0             -219973.67      42733.802      1412987.7    
    132500   1508.2234     -232423.91      0             -219947.1       42742.402      1413163.2    
    133000   1505.4663     -232395.36      0             -219941.36      42626.547      1413338.5    
    133500   1498.6626     -232354.78      0             -219957.07      42790.151      1413513.7    
    134000   1504.1623     -232432.35      0             -219989.13      42477.114      1413688.7    
    134500   1498.6991     -232426.35      0             -220028.33      42472.481      1413863.5    
    135000   1497.0084     -232447.43      0             -220063.4       42244.645      1414038      
    135500   1497.3588     -232472.37      0             -220085.44      42101.501      1414212.4    
    136000   1496.7549     -232469.51      0             -220087.57      42041.014      1414386.6    
    136500   1496.289      -232446.66      0             -220068.58      41961.107      1414560.6    
    137000   1499.8657     -232441.41      0             -220033.74      42078.594      1414734.3    
    137500   1503.2759     -232427.56      0             -219991.68      42013.06       1414907.9    
    138000   1500.4951     -232367.21      0             -219954.34      42391.369      1415081.3    
    138500   1502.5854     -232359.96      0             -219929.79      42180.595      1415254.6    
    139000   1501.0314     -232343.03      0             -219925.72      42079.382      1415427.6    
    139500   1504.0829     -232385.3       0             -219942.74      42193.382      1415600.5    
    140000   1507.2852     -232445.5       0             -219976.45      41780.278      1415773.3    
    140500   1502.8828     -232449.66      0             -220017.03      41715.062      1415945.8    
    141000   1495.8419     -232427.32      0             -220052.94      41850.37       1416118.2    
    141500   1496.7971     -232455.71      0             -220073.43      41372.878      1416290.4    
    142000   1497.7869     -232463.47      0             -220073         41349.708      1416462.3    
    142500   1497.6844     -232440.93      0             -220051.31      41670.562      1416634.1    
    143000   1498.9272     -232412.21      0             -220012.3       41466.005      1416805.7    
    143500   1501.2035     -232387.41      0             -219968.67      41510.516      1416977.1    
    144000   1502.9742     -232364         0             -219930.62      41614.299      1417148.3    
    144500   1506.7177     -232373.55      0             -219909.2       41308.314      1417319.4    
    145000   1507.4844     -232379.98      0             -219909.29      41408.369      1417490.4    
    145500   1504.286      -232374.85      0             -219930.61      41327.01       1417661.1    
    146000   1501.9229     -232390.5       0             -219965.82      41382.963      1417831.7    
    146500   1495.8903     -232379.94      0             -220005.16      40957.7        1418002.2    
    147000   1494.6515     -232402.55      0             -220038.02      40952.521      1418172.4    
    147500   1495.0229     -232422.94      0             -220055.34      40927.343      1418342.5    
    148000   1496.005      -232428.77      0             -220053.04      40768.008      1418512.4    
    148500   1492.3806     -232375.93      0             -220030.18      40980.451      1418682.1    
    149000   1504.7975     -232440.95      0             -219992.48      40718.463      1418851.6    
    149500   1499.522      -232355.51      0             -219950.69      40908.43       1419020.9    
    150000   1507.9074     -232390.56      0             -219916.37      40583.439      1419190.1    
    150500   1506.2592     -232358.79      0             -219898.23      40752.695      1419359.1    
    151000   1505.364      -232351.25      0             -219898.1       40741.464      1419528      
    151500   1496.8561     -232299.81      0             -219917.04      40796.769      1419696.7    
    152000   1499.6613     -232354.73      0             -219948.76      40740.842      1419865.2    
    152500   1498.379      -232381.12      0             -219985.75      40516.246      1420033.6    
    153000   1495.5881     -232389.22      0             -220016.94      40343.262      1420201.8    
    153500   1494.7134     -232399.06      0             -220034.02      40232.113      1420369.9    
    154000   1500.3125     -232443.29      0             -220031.93      39940.32       1420537.7    
    154500   1497.8119     -232401.41      0             -220010.73      40121.147      1420705.4    
    155000   1497.2293     -232361.65      0             -219975.79      40267.841      1420872.8    
    155500   1506.0242     -232395.13      0             -219936.51      39890.311      1421040.1    
    156000   1499.0501     -232304.47      0             -219903.55      40518.303      1421207.3    
    156500   1508.5653     -232364.08      0             -219884.45      39884.501      1421374.3    
    157000   1505.4163     -232338.35      0             -219884.76      40005.971      1421541.1    
    157500   1503.3997     -232340.5       0             -219903.6       40003.964      1421707.9    
    158000   1501.8077     -232357.52      0             -219933.78      39917.472      1421874.4    
    158500   1492.8765     -232316.84      0             -219966.99      39970.825      1422040.8    
    159000   1497.8284     -232385.52      0             -219994.71      39613.479      1422207.1    
    159500   1495.6135     -232382.43      0             -220009.93      39695.27       1422373.2    
    160000   1492.7912     -232356.8       0             -220007.66      39808.443      1422539      
    160500   1494.2373     -232349.99      0             -219988.88      39613.107      1422704.8    
    161000   1500.8165     -232372.72      0             -219957.18      39560.027      1422870.3    
    161500   1498.4168     -232316.22      0             -219920.53      39855.295      1423035.7    
    162000   1499.2716     -232290.77      0             -219888.02      39904.299      1423201      
    162500   1502.4218     -232297.65      0             -219868.84      39566.87       1423366.1    
    163000   1505.4958     -232322.03      0             -219867.79      39410.841      1423531.1    
    163500   1503.155      -232319.23      0             -219884.35      39613.745      1423696      
    164000   1507.4676     -232384.38      0             -219913.82      39413.386      1423860.7    
    164500   1495.1847     -232316.91      0             -219947.97      39390.611      1424025.3    
    165000   1499.1624     -232379.26      0             -219977.41      39208.558      1424189.7    
    165500   1491.5303     -232332.29      0             -219993.58      39260.418      1424353.9    
    166000   1504.9121     -232439.49      0             -219990.07      38457.227      1424518      
    166500   1496.094      -232345.01      0             -219968.54      38857.524      1424682      
    167000   1499.2766     -232337         0             -219934.21      39108.216      1424845.7    
    167500   1498.1196     -232289.51      0             -219896.29      39182.568      1425009.3    
    168000   1506.5852     -232328.04      0             -219864.79      39130.674      1425172.8    
    168500   1513.091      -232364.51      0             -219847.44      38916.755      1425336.1    
    169000   1502.7116     -232279.53      0             -219848.32      39147.224      1425499.3    
    169500   1507.1538     -232335.91      0             -219867.95      38562.527      1425662.4    
    170000   1504.628      -232346.84      0             -219899.77      38517.737      1425825.4    
    170500   1503.62       -232374.09      0             -219935.36      38759.128      1425988.2    
    171000   1494.6564     -232328.17      0             -219963.59      38423.578      1426150.9    
    171500   1491.7733     -232317.55      0             -219976.83      38708.127      1426313.4    
    172000   1494.3528     -232333.3       0             -219971.24      38475.682      1426475.7    
    172500   1489.9583     -232273.17      0             -219947.46      38446.892      1426637.9    
    173000   1500.364      -232322.79      0             -219911         38468.059      1426800      
    173500   1504.3404     -232317.09      0             -219872.41      38517.632      1426961.9    
    174000   1503.6034     -232279.25      0             -219840.66      38548.124      1427123.6    
    174500   1506.5464     -232287.3       0             -219824.37      38543.462      1427285.3    
    175000   1503.8577     -232268.63      0             -219827.93      38444.133      1427446.8    
    175500   1500.9681     -232265.85      0             -219849.06      38353.58       1427608.2    
    176000   1505.2621     -232333.47      0             -219881.16      37962.414      1427769.4    
    176500   1500.4839     -232328.71      0             -219915.93      38026.547      1427930.6    
    177000   1495.4917     -232315.74      0             -219944.26      38094.493      1428091.5    
    177500   1495.6187     -232330.96      0             -219958.42      37844.905      1428252.4    
    178000   1495.3047     -232324.28      0             -219954.34      37768.526      1428413      
    178500   1498.4591     -232327.93      0             -219931.9       37664.888      1428573.5    
    179000   1496.6534     -232277.18      0             -219896.08      38104.384      1428733.9    
    179500   1508.8097     -232338.6       0             -219856.94      37663.083      1428894.1    
    180000   1505.5126     -232280.07      0             -219825.69      37832.565      1429054.1    
    180500   1512.8672     -232323.96      0             -219808.74      37636.961      1429214.1    
    181000   1502.2998     -232237.66      0             -219809.86      37981.815      1429373.9    
    181500   1504.502      -232274.57      0             -219828.55      37521.887      1429533.6    
    182000   1499.9397     -232267.4       0             -219859.12      37690.195      1429693.2    
    182500   1500.8302     -232309         0             -219893.35      37411.275      1429852.7    
    183000   1495.0081     -232287.88      0             -219920.4       37393.28       1430012      
    183500   1500.4972     -232346.43      0             -219933.53      37126.488      1430171.1    
    184000   1492.5618     -232276.53      0             -219929.28      37503.333      1430330.2    
    184500   1499.7303     -232315.18      0             -219908.63      37237.435      1430489      
    185000   1496.2631     -232253.86      0             -219875.99      37402.666      1430647.7    
    185500   1499.5386     -232245.13      0             -219840.17      37343.581      1430806.3    
    186000   1504.6686     -232258.16      0             -219810.76      37263.967      1430964.8    
    186500   1507.8673     -232268.1       0             -219794.24      37325.64       1431123.1    
    187000   1498.3183     -232189.83      0             -219794.97      37511.55       1431281.4    
    187500   1501.2974     -232230.98      0             -219811.47      37275.876      1431439.5    
    188000   1501.0947     -232257.65      0             -219839.82      37128.264      1431597.5    
    188500   1495.5092     -232242.4       0             -219870.77      37136.061      1431755.3    
    189000   1496.4706     -232276.51      0             -219896.92      36814.104      1431913.1    
    189500   1494.4733     -232273.15      0             -219910.09      36770.665      1432070.6    
    190000   1497.9447     -232297.79      0             -219906.01      36934.345      1432228.1    
    190500   1493.7042     -232242.16      0             -219885.47      36961.422      1432385.3    
    191000   1497.728      -232243.89      0             -219853.91      37074.756      1432542.5    
    191500   1499.8884     -232227.28      0             -219819.42      36765.122      1432699.5    
    192000   1504.6012     -232236.32      0             -219789.47      36807.462      1432856.3    
    192500   1504.166      -232216.71      0             -219773.47      36725.478      1433013.1    
    193000   1507.0417     -232240.77      0             -219773.74      36766.643      1433169.7    
    193500   1502.5696     -232220.1       0             -219790.07      36879.995      1433326.3    
    194000   1503.9852     -232260.07      0             -219818.32      36546.735      1433482.7    
    194500   1497.0958     -232235.62      0             -219850.86      36674.905      1433639      
    195000   1490.8405     -232210.8       0             -219877.79      36650.665      1433795.1    
    195500   1490.6638     -232222.15      0             -219890.6       36443.546      1433951.2    
    196000   1499.5388     -232290.08      0             -219885.12      36027.562      1434107.1    
    196500   1497.2528     -232248.81      0             -219862.76      36177.339      1434262.8    
    197000   1499.8339     -232236.61      0             -219829.21      36500.211      1434418.4    
    197500   1499.8623     -232201.9       0             -219794.25      36457.729      1434573.9    
    198000   1502.5578     -232196.07      0             -219766.13      36288.879      1434729.3    
    198500   1496.0215     -232127.1       0             -219751.23      36647.706      1434884.6    
    199000   1507.6833     -232226.26      0             -219753.92      36278.554      1435039.8    
    199500   1499.489      -232176.45      0             -219771.89      36321.868      1435194.8    
    200000   1497.3967     -232188.22      0             -219800.97      36064.671      1435349.8    
    200500   1498.0349     -232225.11      0             -219832.59      36019.364      1435504.6    
    201000   1502.0872     -232284.44      0             -219858.39      35803.865      1435659.4    
    201500   1496.4322     -232249.11      0             -219869.85      35746.046      1435813.9    
    202000   1494.8111     -232230.46      0             -219864.6       35597.749      1435968.4    
    202500   1500.4972     -232255.87      0             -219842.97      35550.171      1436122.7    
    203000   1501.3857     -232230.94      0             -219810.7       35724.132      1436276.9    
    203500   1501.402      -232195.68      0             -219775.3       35744.19       1436430.9    
    204000   1502.7108     -232177.51      0             -219746.31      35928.396      1436584.9    
    204500   1507.8176     -232203.49      0             -219730.04      35843.213      1436738.7    
    205000   1503.5228     -232169.02      0             -219731.1       35687.494      1436892.4    
    205500   1499.3176     -232152.45      0             -219749.31      35851.901      1437046.1    
    206000   1504.5956     -232225.62      0             -219778.82      35630.555      1437199.6    
    206500   1493.7328     -232168.49      0             -219811.55      35630.241      1437353.1    
    207000   1496.8119     -232220.04      0             -219837.63      35363.336      1437506.4    
    207500   1497.2262     -232234.86      0             -219849.03      35222.221      1437659.6    
    208000   1495.5246     -232216.11      0             -219844.35      35250.042      1437812.6    
    208500   1498.1594     -232217.25      0             -219823.7       35195.099      1437965.5    
    209000   1498.6834     -232190.18      0             -219792.29      35326.411      1438118.3    
    209500   1504.988      -232207.28      0             -219757.24      35071.72       1438271      
    210000   1506.2693     -232189.24      0             -219728.59      35151.065      1438423.6    
    210500   1504.1877     -232155.92      0             -219712.5       35371.834      1438576.1    
    211000   1502.2562     -232140.49      0             -219713.05      35463.026      1438728.5    
    211500   1500.9745     -232147.37      0             -219730.53      35169.097      1438880.7    
    212000   1500.1054     -232169.45      0             -219759.79      34933.639      1439032.9    
    212500   1495.4368     -232162.61      0             -219791.58      35123.321      1439185      
    213000   1499.4103     -232220.26      0             -219816.36      34808.767      1439336.9    
    213500   1497.728      -232217.98      0             -219827.99      34626.604      1439488.7    
    214000   1495.8637     -232195.94      0             -219821.38      34888.324      1439640.4    
    214500   1496.9058     -232180.95      0             -219797.77      34874.726      1439791.9    
    215000   1495.6213     -232136.91      0             -219764.35      34804.485      1439943.3    
    215500   1502.143      -232155.93      0             -219729.42      34830.898      1440094.6    
    216000   1499.2754     -232104.54      0             -219701.76      34945.475      1440245.8    
    216500   1503.3219     -232125.03      0             -219688.77      34939.621      1440396.9    
    217000   1506.3668     -232154.64      0             -219693.19      34604.201      1440547.9    
    217500   1504.4587     -232159.05      0             -219713.38      34706.95       1440698.8    
    218000   1501.1698     -232162.21      0             -219743.75      34471.916      1440849.6    
    218500   1497.7597     -232165.77      0             -219775.52      34441.939      1441000.3    
    219000   1501.9614     -232223.14      0             -219798.14      34045.885      1441150.9    
    219500   1498.7389     -232204.42      0             -219806.07      34105.627      1441301.3    
    220000   1493.85       -232155.31      0             -219797.41      34230.902      1441451.6    
    220500   1494.7959     -232139.58      0             -219773.85      34330.522      1441601.8    
    221000   1504.3555     -232185.79      0             -219740.98      34021.305      1441751.9    
    221500   1497.9262     -232099.13      0             -219707.51      34301.415      1441901.8    
    222000   1497.7998     -232071.71      0             -219681.13      34601.971      1442051.7    
    222500   1501.7024     -232091.38      0             -219668.51      34372.207      1442201.4    
    223000   1498.7493     -232072.37      0             -219673.93      34401.238      1442351.1    
    223500   1503.2725     -232131.4       0             -219695.54      34115.881      1442500.6    
    224000   1506.8792     -232191.19      0             -219725.51      33763.794      1442650.1    
    224500   1500.3624     -232167.79      0             -219756.01      33867.941      1442799.4    
    225000   1503.9335     -232218.99      0             -219777.67      33659.675      1442948.6    
    225500   1495.1164     -232152.73      0             -219784.35      33698.848      1443097.7    
    226000   1496.169      -232151.26      0             -219774.17      33817.138      1443246.7    
    226500   1494.8795     -232115.01      0             -219748.59      33880.446      1443395.5    
    227000   1491.0747     -232048.92      0             -219713.98      33946.572      1443544.2    
    227500   1501.2601     -232100.07      0             -219680.86      33938.983      1443692.9    
    228000   1501.5661     -232079.02      0             -219657.28      33864.954      1443841.4    
    228500   1506.4867     -232110.87      0             -219648.43      33661.254      1443989.8    
    229000   1504.0241     -232098.28      0             -219656.21      33788.985      1444138.1    
    229500   1511.6896     -232182.95      0             -219677.47      33340.253      1444286.4    
    230000   1504.5818     -232153.3       0             -219706.61      33389.234      1444434.5    
    230500   1497.6328     -232124.83      0             -219735.64      33403.617      1444582.5    
    231000   1492.4145     -232101.75      0             -219755.72      33390.3        1444730.4    
    231500   1495.1901     -232130.3       0             -219761.31      33455.324      1444878.2    
    232000   1491.3139     -232087.23      0             -219750.31      33569.521      1445025.9    
    232500   1493.4142     -232079.83      0             -219725.53      33367.114      1445173.4    
    233000   1499.0968     -232094.21      0             -219692.9       33385.518      1445320.8    
    233500   1497.874      -232051.94      0             -219660.75      33460.548      1445468.2    
    234000   1495.8346     -232011.99      0             -219637.67      33692.131      1445615.4    
    234500   1501.5197     -232049.75      0             -219628.4       33642.593      1445762.6    
    235000   1505.0505     -232085.52      0             -219634.96      33451.254      1445909.6    
    235500   1505.7105     -232112.15      0             -219656.13      32973.796      1446056.6    
    236000   1501.6748     -232107.82      0             -219685.19      33278.203      1446203.5    
    236500   1500.0122     -232122.43      0             -219713.55      32987.599      1446350.3    
    237000   1494.1374     -232093.88      0             -219733.6       32819.271      1446496.9    
    237500   1492.1702     -232083.5       0             -219739.49      33058.3        1446643.4    
    238000   1493.6538     -232083.47      0             -219727.19      32988.529      1446789.9    
    238500   1499.0495     -232101.84      0             -219700.92      32774.726      1446936.1    
    239000   1500.9624     -232084.1       0             -219667.35      32866.863      1447082.3    
    239500   1501.2187     -232055.08      0             -219636.21      33101.653      1447228.4    
    240000   1511.1021     -232114.17      0             -219613.55      32672.536      1447374.4    
    240500   1502.9079     -232037.7       0             -219604.86      32917.646      1447520.3    
    241000   1510.3851     -232105.55      0             -219610.85      32572.629      1447666.1    
    241500   1499.1832     -232033.82      0             -219631.8       32980.81       1447811.9    
    242000   1497.1651     -232046.02      0             -219660.69      32892.364      1447957.5    
    242500   1494.6173     -232054.93      0             -219690.68      32524.029      1448103      
    243000   1498.3863     -232106.38      0             -219710.95      32281.327      1448248.4    
    243500   1500.3617     -232128.4       0             -219716.63      32326.378      1448393.8    
    244000   1499.6993     -232113.34      0             -219707.04      32451.481      1448539      
    244500   1500.5756     -232096.11      0             -219682.56      32404.613      1448684      
    245000   1500.1234     -232059.96      0             -219650.16      32311.323      1448829      
    245500   1497.1851     -232003.38      0             -219617.89      32634.917      1448973.9    
    246000   1504.0122     -232036.24      0             -219594.27      32640.594      1449118.7    
    246500   1502.4153     -232013.39      0             -219584.63      32504.153      1449263.4    
    247000   1498.8908     -231992.03      0             -219592.43      32745.091      1449408      
    247500   1504.567      -232059.47      0             -219612.91      32119.974      1449552.5    
    248000   1500.9724     -232058.15      0             -219641.32      32036.077      1449697      
    248500   1496.7524     -232051.22      0             -219669.31      32117.505      1449841.3    
    249000   1495.7646     -232062.22      0             -219688.48      31959.711      1449985.5    
    249500   1493.7591     -232048.94      0             -219691.79      31918.091      1450129.6    
    250000   1496.0238     -232054.03      0             -219678.14      31849.218      1450273.6    
    250500   1500.7996     -232066.64      0             -219651.25      32051.864      1450417.4    
    251000   1500.9874     -232035.07      0             -219618.12      32089.069      1450561.2    
    251500   1506.3661     -232050.05      0             -219588.61      31971.592      1450704.8    
    252000   1502.8262     -232002.1       0             -219569.94      32323.627      1450848.4    
    252500   1507.3277     -232034.26      0             -219564.86      31822.047      1450991.9    
    253000   1504.5602     -232023.05      0             -219576.54      32036.907      1451135.3    
    253500   1499.526      -232004.43      0             -219599.57      31954.677      1451278.6    
    254000   1501.5551     -232050.79      0             -219629.14      31839.09       1451421.8    
    254500   1498.4137     -232051         0             -219655.34      31352.251      1451564.9    
    255000   1496.2845     -232048.89      0             -219670.84      31306.539      1451707.9    
    255500   1500.093      -232081.26      0             -219671.71      31550.06       1451850.8    
    256000   1494.1294     -232012.96      0             -219652.74      31357.859      1451993.6    
    256500   1501.4954     -232038.05      0             -219616.9       31434.989      1452136.3    
    257000   1503.5103     -232017.32      0             -219579.5       31382.602      1452278.8    
    257500   1503.4585     -231994.9       0             -219557.51      31533.279      1452421.3    
    258000   1505.0062     -232003.07      0             -219552.88      31478.318      1452563.6    
    258500   1502.0618     -231987.3       0             -219561.46      31492.567      1452705.9    
    259000   1503.3162     -232018.79      0             -219582.57      31378.845      1452848.1    
    259500   1498.749      -232021.88      0             -219623.45      31313.974      1452990.2    
    260000   1486.9605     -231990.2       0             -219689.29      31176.962      1453132.2    
    260500   1489.7143     -232053.9       0             -219730.21      31037.7        1453274      
    261000   1494.9269     -232094.97      0             -219728.16      30716.08       1453415.8    
    261500   1494.0382     -232060.95      0             -219701.49      30926.894      1453557.4    
    262000   1493.1641     -232022.9       0             -219670.67      30938.818      1453698.8    
    262500   1495.6472     -232015.46      0             -219642.68      31002.34       1453840.2    
    263000   1496.9351     -231998.6       0             -219615.17      30840.098      1453981.4    
    263500   1490.5245     -231919.34      0             -219588.94      31287.944      1454122.5    
    264000   1499.7229     -231971.85      0             -219565.36      31206.075      1454263.6    
    264500   1502.8292     -231982.07      0             -219549.88      31194.246      1454404.6    
    265000   1500.0247     -231950.49      0             -219541.51      31104.345      1454545.5    
    265500   1501.4396     -231960.65      0             -219539.97      30913.859      1454686.3    
    266000   1498.2096     -231941.83      0             -219547.86      30941.561      1454827      
    266500   1499.503      -231980.6       0             -219575.94      30783.714      1454967.7    
    267000   1494.1233     -231981.11      0             -219620.94      31032.941      1455108.2    
    267500   1489.2058     -231977         0             -219657.51      30778.792      1455248.7    
    268000   1493.1025     -232019.98      0             -219668.26      30798.339      1455389      
    268500   1496.7635     -232029.88      0             -219647.87      30511.843      1455529.3    
    269000   1504.1535     -232042.31      0             -219599.17      30457.533      1455669.4    
    269500   1496.0161     -231933.71      0             -219557.89      30817.917      1455809.5    
    270000   1502.9323     -231974.18      0             -219541.14      30705.803      1455949.5    
    270500   1504.797      -231985.08      0             -219536.62      30725.079      1456089.3    
    271000   1502.7544     -231968.75      0             -219537.18      30469.282      1456229.1    
    271500   1500.8559     -231958.5       0             -219542.64      30493.173      1456368.9    
    272000   1504.5546     -231999.23      0             -219552.77      30245.477      1456508.5    
    272500   1498.3938     -231962.37      0             -219566.88      30401.084      1456648      
    273000   1499.1312     -231988.26      0             -219586.67      30299.755      1456787.5    
    273500   1499.3691     -232010.95      0             -219607.39      30029.401      1456926.8    
    274000   1495.6885     -231990.34      0             -219617.22      30101.392      1457066.1    
    274500   1497.062      -231990.99      0             -219606.51      30108.403      1457205.2    
    275000   1497.5988     -231958.3       0             -219569.38      30208.244      1457344.3    
    275500   1500.658      -231938.23      0             -219524.01      30522.413      1457483.2    
    276000   1503.3616     -231932.38      0             -219495.79      30417.288      1457622      
    276500   1501.5245     -231908         0             -219486.61      30215.174      1457760.8    
    277000   1502.717      -231922.66      0             -219491.41      30278.727      1457899.6    
    277500   1499.7709     -231914.01      0             -219507.12      30196.203      1458038.2    
    278000   1495.0163     -231902.24      0             -219534.69      30234.731      1458176.8    
    278500   1497.239      -231963.63      0             -219577.69      29936.795      1458315.3    
    279000   1491.5249     -231972.03      0             -219633.36      29862.448      1458453.7    
    279500   1487.2376     -231969.35      0             -219666.15      29655.764      1458592      
    280000   1484.8043     -231942.99      0             -219659.91      29912.06       1458730.1    
    280500   1498.3933     -231997.78      0             -219602.3       29588.606      1458868.2    
    281000   1500.2043     -231955.49      0             -219545.02      29994.248      1459006.1    
    281500   1503.9295     -231968.63      0             -219527.35      29841.384      1459143.9    
    282000   1501.7969     -231938.6       0             -219514.95      29728.482      1459281.7    
    282500   1503.5915     -231940.11      0             -219501.62      29979.046      1459419.4    
    283000   1497.1326     -231874.23      0             -219489.17      30160.054      1459557      
    283500   1507.595      -231951.21      0             -219479.6       29797.28       1459694.5    
    284000   1503.541      -231912.53      0             -219474.46      29664.659      1459832      
    284500   1502.8606     -231906.86      0             -219474.41      29762.833      1459969.4    
    285000   1504.4935     -231929.12      0             -219483.17      29530.819      1460106.7    
    285500   1499.9814     -231911.74      0             -219503.11      29502.43       1460244      
    286000   1498.6093     -231929.22      0             -219531.95      29642.577      1460381.1    
    286500   1500.0798     -231971.88      0             -219562.44      29273.211      1460518.2    
    287000   1495.1779     -231949.84      0             -219580.95      29449.647      1460655.2    
    287500   1497.5688     -231965.42      0             -219576.76      29101.655      1460792      
    288000   1495.7086     -231910.12      0             -219536.84      29447.61       1460928.8    
    288500   1502.2667     -231906.05      0             -219478.52      29270.798      1461065.5    
    289000   1503.0791     -231882.9       0             -219448.65      29510.347      1461202.1    
    289500   1501.738      -231864.91      0             -219441.76      29343.159      1461338.6    
    290000   1498.7012     -231845.53      0             -219447.5       29626.458      1461475      
    290500   1502.0434     -231886.75      0             -219461.06      29235.58       1461611.4    
    291000   1496.5048     -231862.74      0             -219482.87      29402.81       1461747.7    
    291500   1494.7536     -231876.75      0             -219511.37      29401.765      1461883.9    
    292000   1495.4683     -231917.83      0             -219546.53      28966.265      1462020      
    292500   1493.249      -231932.49      0             -219579.55      28896.067      1462156      
    293000   1492.846      -231947.31      0             -219597.71      28709.234      1462291.9    
    293500   1491.4602     -231918.08      0             -219579.94      28896.486      1462427.7    
    294000   1496.3641     -231894.7       0             -219516         28947.61       1462563.4    
    294500   1494.4227     -231829.68      0             -219467.03      29276.231      1462698.9    
    295000   1505.6679     -231900.56      0             -219444.9       29113.418      1462834.4    
    295500   1500.8531     -231848.49      0             -219432.65      29187.422      1462969.8    
    296000   1503.6526     -231867.74      0             -219428.75      28826.923      1463105.2    
    296500   1505.844      -231889.39      0             -219432.27      28771.095      1463240.4    
    297000   1500.8887     -231858.93      0             -219442.8       28779.297      1463375.7    
    297500   1493.6235     -231819.98      0             -219463.95      29041.1        1463510.8    
    298000   1493.924      -231852.38      0             -219493.86      28711.761      1463645.9    
    298500   1493.034      -231875.85      0             -219524.7       28545.578      1463780.8    
    299000   1495.4373     -231914.42      0             -219543.38      28730.252      1463915.7    
    299500   1490.1376     -231865.06      0             -219537.87      28603.625      1464050.5    
    300000   1498.4859     -231888.94      0             -219492.68      28792.236      1464185.1    
    300500   1497.1841     -231820.75      0             -219435.27      28921.696      1464319.7    
    301000   1499.8773     -231815.93      0             -219408.16      28887.199      1464454.2    
    301500   1499.175      -231802.49      0             -219400.53      28610.953      1464588.6    
    302000   1501.2111     -231823.97      0             -219405.17      28742.327      1464723      
    302500   1500.7223     -231833.86      0             -219419.1       28581.427      1464857.3    
    303000   1498.4669     -231837.74      0             -219441.64      28595.684      1464991.5    
    303500   1495.1212     -231839.53      0             -219471.11      28327.114      1465125.7    
    304000   1495.3786     -231874.94      0             -219504.39      28381.753      1465259.7    
    304500   1491.1229     -231869.71      0             -219534.37      28245.107      1465393.7    
    305000   1493.4478     -231899.34      0             -219544.76      28039.326      1465527.5    
    305500   1488.7491     -231830.26      0             -219514.55      28204.682      1465661.2    
    306000   1499.7304     -231855.4       0             -219448.85      28113.281      1465794.8    
    306500   1505.1134     -231859.57      0             -219408.49      28281.915      1465928.4    
    307000   1505.8159     -231847.1       0             -219390.2       28130.433      1466061.8    
    307500   1502.6708     -231813.9       0             -219383.03      28380.052      1466195.2    
    308000   1498.9209     -231784.23      0             -219384.38      28393.54       1466328.5    
    308500   1497.4746     -231781.25      0             -219393.36      28280.316      1466461.8    
    309000   1493.7248     -231768.26      0             -219411.39      28310.315      1466594.9    
    309500   1497.3452     -231825.51      0             -219438.7       28222.341      1466728.1    
    310000   1497.604      -231858.06      0             -219469.1       27935.106      1466861.1    
    310500   1492.0123     -231835.98      0             -219493.28      27928.537      1466994      
    311000   1493.5434     -231851.2       0             -219495.83      27873.38       1467126.9    
    311500   1498.0749     -231855.72      0             -219462.87      27768.39       1467259.6    
    312000   1503.193      -231837.34      0             -219402.14      27737.245      1467392.2    
    312500   1502.867      -231798.83      0             -219366.33      28005.949      1467524.8    
    313000   1501.6382     -231777.52      0             -219355.18      28043.524      1467657.2    
    313500   1504.4464     -231801.82      0             -219356.26      28014.25       1467789.7    
    314000   1503.151      -231802.46      0             -219367.62      27639.868      1467922      
    314500   1500.3215     -231799.19      0             -219387.75      27858.32       1468054.3    
    315000   1499.153      -231819.88      0             -219418.1       27788.953      1468186.5    
    315500   1493.5965     -231810.22      0             -219454.41      27418.098      1468318.7    
    316000   1494.1345     -231845.34      0             -219485.08      27240.905      1468450.7    
    316500   1493.2423     -231850.22      0             -219497.34      27497.639      1468582.6    
    317000   1488.7858     -231786.14      0             -219470.13      27570.106      1468714.4    
    317500   1503.4212     -231838.89      0             -219401.81      27544.79       1468846.2    
    318000   1506.0731     -231818.5       0             -219359.48      27435.592      1468977.8    
    318500   1505.9778     -231799.96      0             -219341.73      27506.138      1469109.3    
    319000   1506.0672     -231793.91      0             -219334.94      27494.051      1469240.8    
    319500   1503.0106     -231770.9       0             -219337.21      27556.254      1469372.2    
    320000   1503.5779     -231786.62      0             -219348.25      27530.374      1469503.6    
    320500   1498.3169     -231763.34      0             -219368.48      27385.172      1469634.9    
    321000   1501.2489     -231816.78      0             -219397.67      27278.532      1469766.1    
    321500   1498.5837     -231825.9       0             -219428.84      27090.839      1469897.2    
    322000   1501.8001     -231875.03      0             -219451.36      26846.933      1470028.2    
    322500   1494.2164     -231813.21      0             -219452.28      27146.502      1470159.1    
    323000   1495.5283     -231786.53      0             -219414.74      27249.666      1470289.9    
    323500   1502.5673     -231781.9       0             -219351.88      27191.316      1470420.7    
    324000   1503.0701     -231752.43      0             -219318.25      27027.873      1470551.3    
    324500   1504.5209     -231754.71      0             -219308.53      27424.575      1470681.9    
    325000   1494.9178     -231677.86      0             -219311.12      27413.87       1470812.5    
    325500   1501.7457     -231747.44      0             -219324.21      27276.384      1470942.9    
    326000   1493.8082     -231704.32      0             -219346.76      27390.482      1471073.3    
    326500   1493.3831     -231730.76      0             -219376.72      27151.102      1471203.7    
    327000   1493.351      -231762.11      0             -219408.33      26956.272      1471333.9    
    327500   1496.4851     -231814.22      0             -219434.52      26774.81       1471464.1    
    328000   1497.5699     -231831.98      0             -219443.3       26379.097      1471594.2    
    328500   1489.5572     -231734.9       0             -219412.5       26770.135      1471724.1    
    329000   1494.5051     -231711.81      0             -219348.49      27041.336      1471854      
    329500   1504.1821     -231751.82      0             -219308.45      26651.575      1471983.8    
    330000   1497.5886     -231680.89      0             -219292.06      27271.851      1472113.5    
    330500   1499.2802     -231690.31      0             -219287.48      27081.385      1472243.1    
    331000   1502.2201     -231721.33      0             -219294.18      26871.182      1472372.8    
    331500   1500.4575     -231724.56      0             -219311.99      26848.216      1472502.3    
    332000   1495.2019     -231707.66      0             -219338.58      26779.864      1472631.8    
    332500   1497.8288     -231763.65      0             -219372.83      26734.874      1472761.2    
    333000   1487.8897     -231713.19      0             -219404.59      26493.145      1472890.5    
    333500   1489.1504     -231740.1       0             -219421.07      26659.68       1473019.7    
    334000   1494.5527     -231770.45      0             -219406.73      26534.177      1473148.9    
    334500   1494.6326     -231709.98      0             -219345.6       26736.753      1473277.9    
    335000   1501.7902     -231715.67      0             -219292.08      26714.965      1473406.9    
    335500   1499.7342     -231677.96      0             -219271.38      26817.069      1473535.8    
    336000   1501.2704     -231684.92      0             -219265.63      26604.118      1473664.6    
    336500   1501.3383     -231690.31      0             -219270.46      26580.436      1473793.4    
    337000   1502.7151     -231715.03      0             -219283.79      26770.436      1473922.1    
    337500   1494.3593     -231667.85      0             -219305.74      26461.489      1474050.8    
    338000   1497.6523     -231725.29      0             -219335.93      26371.536      1474179.3    
    338500   1497.7885     -231757.89      0             -219367.4       26056.432      1474307.8    
    339000   1496.2838     -231767.59      0             -219389.55      26057.142      1474436.2    
    339500   1492.8857     -231739.44      0             -219389.51      26177.495      1474564.5    
    340000   1494.6347     -231711.43      0             -219347.04      26288.907      1474692.7    
    340500   1506.6064     -231748.52      0             -219285.09      26144.705      1474820.8    
    341000   1504.9244     -231703.52      0             -219254         26159.88       1474948.9    
    341500   1502.2845     -231672.22      0             -219244.54      26279.279      1475076.9    
    342000   1506.6682     -231709.96      0             -219246.01      26179.472      1475204.8    
    342500   1505.3441     -231711.18      0             -219258.19      25862.673      1475332.7    
    343000   1496.02       -231655.37      0             -219279.51      26386.136      1475460.5    
    343500   1506.8161     -231772.48      0             -219307.31      25914.397      1475588.2    
    344000   1501.203      -231758.78      0             -219340.04      25728.445      1475715.9    
    344500   1492.9431     -231719.27      0             -219368.87      25954.514      1475843.5    
    345000   1496.5217     -231762.23      0             -219382.23      25975.904      1475970.9    
    345500   1496.3674     -231738.06      0             -219359.33      25916.358      1476098.3    
    346000   1499.5083     -231700.94      0             -219296.23      25750.308      1476225.6    
    346500   1498.4265     -231646.75      0             -219250.99      26083.981      1476352.9    
    347000   1503.3223     -231667.98      0             -219231.71      26114.626      1476480      
    347500   1501.4479     -231645.56      0             -219224.81      26049.089      1476607.1    
    348000   1503.5071     -231665.4       0             -219227.61      25897.932      1476734.2    
    348500   1500.6499     -231653.72      0             -219239.57      25882.297      1476861.1    
    349000   1501.3064     -231680.74      0             -219261.15      25840.869      1476988      
    349500   1499.5311     -231695.79      0             -219290.89      25888.282      1477114.9    
    350000   1494.7551     -231689.37      0             -219323.98      25573.819      1477241.6    
    350500   1496.1879     -231726.6       0             -219349.36      25337.573      1477368.3    
    351000   1488.2874     -231663.28      0             -219351.4       25441.18       1477494.9    
    351500   1491.8289     -231651.46      0             -219310.27      25319.14       1477621.3    
    352000   1497.7325     -231636.11      0             -219246.09      25797.473      1477747.7    
    352500   1500.5687     -231627.35      0             -219213.87      25535.633      1477874      
    353000   1503.7119     -231642.48      0             -219202.99      25784.252      1478000.3    
    353500   1501.1323     -231620.78      0             -219202.63      25661.499      1478126.5    
    354000   1502.4252     -231639.36      0             -219210.52      25665.282      1478252.6    
    354500   1498.6499     -231623.73      0             -219226.12      25521.391      1478378.6    
    355000   1497.0071     -231635.23      0             -219251.2       25415.81       1478504.6    
    355500   1496.0104     -231658.38      0             -219282.6       25362.678      1478630.5    
    356000   1499.0388     -231712.01      0             -219311.18      25046.515      1478756.3    
    356500   1490.1728     -231653.85      0             -219326.36      25378.913      1478882.1    
    357000   1488.8585     -231628.27      0             -219311.66      25405.04       1479007.7    
    357500   1495.2816     -231624.51      0             -219254.76      25259.563      1479133.2    
    358000   1503.7763     -231642.71      0             -219202.69      25379.918      1479258.7    
    358500   1499.1825     -231582.3       0             -219180.28      25566.918      1479384.1    
    359000   1501.9078     -231598.28      0             -219173.72      25331.892      1479509.4    
    359500   1500.6981     -231591.56      0             -219177         25269.519      1479634.7    
    360000   1499.8866     -231598.44      0             -219190.6       25299.071      1479759.8    
    360500   1494.206      -231576.25      0             -219215.4       25278.499      1479885      
    361000   1496.409      -231629.24      0             -219250.17      24928.356      1480010      
    361500   1490.1841     -231613.09      0             -219285.51      24863.997      1480135      
    362000   1495.128      -231677.02      0             -219308.54      24762.893      1480259.9    
    362500   1496.3251     -231683.66      0             -219305.29      24840.685      1480384.7    
    363000   1496.0513     -231628.06      0             -219251.95      24762.244      1480509.4    
    363500   1499.5557     -231593.87      0             -219188.77      24948.042      1480633.9    
    364000   1502.192      -231589.43      0             -219162.52      25065.417      1480758.5    
    364500   1504.6826     -231601.41      0             -219153.9       24981.878      1480882.9    
    365000   1501.9474     -231580.11      0             -219155.22      25029.021      1481007.4    
    365500   1506.9092     -231631.85      0             -219165.91      24758.892      1481131.7    
    366000   1500.5225     -231600.69      0             -219187.59      24994.405      1481256      
    366500   1498.7971     -231614.94      0             -219216.11      24702.155      1481380.2    
    367000   1490.9757     -231581.01      0             -219246.89      24906.388      1481504.3    
    367500   1494.5679     -231634.11      0             -219270.27      24496.125      1481628.4    
    368000   1495.217      -231644.27      0             -219275.05      24498.595      1481752.4    
    368500   1492.3793     -231587.15      0             -219241.41      24632.011      1481876.2    
    369000   1498.2608     -231570.53      0             -219176.13      24691.858      1482000      
    369500   1500.1584     -231549.01      0             -219138.92      24935.265      1482123.7    
    370000   1502.0639     -231552.97      0             -219127.11      25016.834      1482247.4    
    370500   1502.2796     -231555.79      0             -219128.15      24793.219      1482371      
    371000   1503.9074     -231580.61      0             -219139.51      24658.135      1482494.5    
    371500   1498.6754     -231558.87      0             -219161.05      24744.25       1482618      
    372000   1495.2124     -231561.45      0             -219192.27      24516.133      1482741.5    
    372500   1498.859      -231625.79      0             -219226.45      24359.327      1482864.8    
    373000   1494.9546     -231620.21      0             -219253.17      24271.435      1482988.1    
    373500   1491.7705     -231604.4       0             -219263.7       24413.833      1483111.3    
    374000   1494.4212     -231600.81      0             -219238.19      24392.782      1483234.3    
    374500   1499.0782     -231571.92      0             -219170.76      24399.387      1483357.3    
    375000   1501.3399     -231546.57      0             -219126.71      24409.455      1483480.3    
    375500   1503.32       -231545.62      0             -219109.38      24593.508      1483603.1    
    376000   1502.142      -231532.48      0             -219105.98      24463.287      1483726      
    376500   1503.8532     -231554.6       0             -219113.95      24645.039      1483848.8    
    377000   1497.5599     -231522.15      0             -219133.56      24491.381      1483971.5    
    377500   1498.901      -231562.78      0             -219163.09      24231.12       1484094.2    
    378000   1501.6919     -231618.73      0             -219195.95      23962.528      1484216.8    
    378500   1489.7129     -231544.48      0             -219220.8       24337.097      1484339.3    
    379000   1492.8979     -231580         0             -219229.97      24071.253      1484461.7    
    379500   1490.681      -231536.88      0             -219205.19      23941.234      1484584      
    380000   1498.6548     -231536.84      0             -219139.19      23958.751      1484706.3    
    380500   1497.0339     -231478.15      0             -219093.9       24288.244      1484828.4    
    381000   1504.2674     -231522.39      0             -219078.3       24036.192      1484950.5    
    381500   1504.0166     -231519.46      0             -219077.46      24024.353      1485072.6    
[...]
   1709000   1505.692      -228424.65      0             -215968.78      927.13706      1641942.9    
   1709500   1503.297      -228451.13      0             -216015.08      462.16076      1641956.9    
   1710000   1496.2775     -228428.32      0             -216050.34      723.81963      1641970.9    
   1710500   1499.7728     -228471.55      0             -216064.65      721.3395       1641984.8    
   1711000   1499.8171     -228474.5       0             -216067.23      601.99755      1641998.7    
   1711500   1495.3261     -228430.83      0             -216060.71      600.28668      1642012.6    
   1712000   1497.9752     -228439.23      0             -216047.2       460.08729      1642026.5    
   1712500   1499.3537     -228429.7       0             -216026.26      332.7314       1642040.4    
   1713000   1498.1261     -228388.43      0             -215995.15      851.31999      1642054.2    
   1713500   1500.734      -228364.78      0             -215949.92      650.3045       1642068      
   1714000   1503.2055     -228340.68      0             -215905.38      579.35793      1642081.7    
   1714500   1508.979      -228370.08      0             -215887.03      1012.7365      1642095.5    
   1715000   1499.9825     -228324.98      0             -215916.34      782.54288      1642109.2    
   1715500   1498.096      -228397.96      0             -216004.93      958.26035      1642123      
   1716000   1497.8543     -228436.42      0             -216045.39      496.60707      1642136.7    
   1716500   1499.9985     -228467.02      0             -216058.25      420.20293      1642150.4    
   1717000   1500.1032     -228468.69      0             -216059.06      301.5912       1642164.1    
   1717500   1497.5786     -228437.17      0             -216048.42      642.117        1642177.7    
   1718000   1500.2011     -228436.62      0             -216026.18      338.5056       1642191.3    
   1718500   1506.7758     -228462.74      0             -215997.91      543.39312      1642204.8    
   1719000   1501.9075     -228398.95      0             -215974.39      620.04559      1642218.4    
   1719500   1508.2529     -228437.34      0             -215960.29      810.58558      1642231.8    
   1720000   1497.1116     -228345.86      0             -215960.97      630.18438      1642245.3    
   1720500   1501.1364     -228404.47      0             -215986.29      696.20763      1642258.8    
   1721000   1501.0144     -228461.04      0             -216043.87      709.59722      1642272.2    
   1721500   1496.8828     -228471.51      0             -216088.51      225.72083      1642285.6    
   1722000   1493.6623     -228456.83      0             -216100.48      936.93973      1642299      
   1722500   1494.4704     -228453.73      0             -216090.69      258.51062      1642312.3    
   1723000   1495.0316     -228433.69      0             -216066.01      598.79859      1642325.6    
   1723500   1499.6917     -228439.32      0             -216033.09      493.39975      1642338.8    
   1724000   1504.2451     -228447.84      0             -216003.95      434.72919      1642352      
   1724500   1500.9386     -228405.81      0             -215989.26      811.6393       1642365.2    
   1725000   1504.1183     -228432.2       0             -215989.35      775.63344      1642378.4    
   1725500   1495.7495     -228371.23      0             -215997.62      737.57453      1642391.5    
   1726000   1503.4928     -228446.07      0             -216008.4       711.22177      1642404.7    
   1726500   1495.9229     -228398.69      0             -216023.64      720.79453      1642417.8    
   1727000   1493.8063     -228398.25      0             -216040.71      821.55501      1642430.9    
   1727500   1502.4536     -228482.89      0             -216053.81      447.81676      1642444      
   1728000   1495.8235     -228437.69      0             -216063.46      751.2284       1642457.1    
   1728500   1499.5594     -228475.74      0             -216070.61      515.37825      1642470.2    
   1729000   1493.5482     -228431.9       0             -216076.5       578.87076      1642483.2    
   1729500   1501.5993     -228493.98      0             -216071.97      576.16361      1642496.2    
   1730000   1500.5911     -228464.82      0             -216051.15      695.30334      1642509.2    
   1730500   1499.7741     -228428.54      0             -216021.63      602.44194      1642522.2    
   1731000   1505.0424     -228442.63      0             -215992.14      645.58853      1642535.1    
   1731500   1504.4826     -228419.08      0             -215973.22      768.15321      1642548      
   1732000   1503.1681     -228406         0             -215971.01      362.43552      1642561      
   1732500   1501.5045     -228410.69      0             -215989.47      643.05664      1642573.9    
   1733000   1504.3058     -228475.85      0             -216031.45      344.57303      1642586.9    
   1733500   1498.6467     -228478.32      0             -216080.74      349.17061      1642599.8    
   1734000   1497.2197     -228493.34      0             -216107.56      642.91254      1642612.7    
   1734500   1492.7266     -228455.91      0             -216107.3       694.30366      1642625.6    
   1735000   1493.3934     -228446.61      0             -216092.48      667.28617      1642638.4    
   1735500   1495.1606     -228439.84      0             -216071.1       543.94147      1642651.2    
   1736000   1499.4035     -228454.92      0             -216051.07      880.91814      1642664      
   1736500   1501.6746     -228460.9       0             -216038.27      574.4432       1642676.8    
   1737000   1500.3309     -228441.95      0             -216030.43      351.75558      1642689.6    
   1737500   1502.0975     -228450.79      0             -216024.65      407.93496      1642702.3    
   1738000   1500.0757     -228429.4       0             -216019.99      582.16306      1642715      
   1738500   1506.6354     -228480.21      0             -216016.54      466.37999      1642727.7    
   1739000   1501.8095     -228443.35      0             -216019.6       476.59984      1642740.4    
   1739500   1503.2873     -228470.01      0             -216034.03      478.19433      1642753.1    
   1740000   1497.3919     -228460.51      0             -216073.3       411.08129      1642765.8    
   1740500   1492.7469     -228462.37      0             -216113.59      399.05425      1642778.4    
   1741000   1493.3212     -228481.78      0             -216128.25      235.59967      1642791      
   1741500   1487.1846     -228415.6       0             -216112.84      620.05729      1642803.5    
   1742000   1495.8666     -228440.49      0             -216065.9       507.97604      1642816      
   1742500   1500.8366     -228435.24      0             -216019.54      682.64123      1642828.5    
   1743000   1504.8843     -228444.86      0             -215995.67      409.97904      1642841      
   1743500   1502.0991     -228413.09      0             -215986.94      629.20446      1642853.4    
   1744000   1496.7149     -228370.1       0             -215988.49      709.76634      1642865.8    
   1744500   1497.183      -228386.77      0             -216001.29      565.5114       1642878.2    
   1745000   1499.8429     -228433         0             -216025.52      486.98337      1642890.6    
   1745500   1497.9622     -228453.35      0             -216061.43      679.72812      1642903      
   1746000   1493.6154     -228463.37      0             -216107.41      586.47602      1642915.3    
   1746500   1487.1102     -228446.24      0             -216144.09      701.07759      1642927.7    
   1747000   1489.7166     -228473.94      0             -216150.23     -11.712958      1642939.9    
   1747500   1494.5048     -228459.9       0             -216096.58      477.89649      1642952.1    
   1748000   1502.7611     -228449.68      0             -216018.06      509.68919      1642964.2    
   1748500   1496.4413     -228370.28      0             -215990.94      641.64068      1642976.4    
   1749000   1501.0868     -228397.54      0             -215979.77      888.76481      1642988.5    
   1749500   1507.3234     -228452         0             -215982.64      724.77467      1643000.5    
   1750000   1496.0567     -228376.17      0             -216000.01      482.86441      1643012.6    
   1750500   1498.8326     -228425.32      0             -216026.2       558.0419       1643024.7    
   1751000   1502.1311     -228481.54      0             -216055.13      423.3584       1643036.8    
   1751500   1500.524      -228491.33      0             -216078.21      306.92913      1643048.8    
   1752000   1496.6299     -228468.39      0             -216087.49      136.23275      1643060.8    
   1752500   1494.9612     -228443.8       0             -216076.7       376.92136      1643072.8    
   1753000   1502.4738     -228460.78      0             -216031.53      606.10012      1643084.8    
   1753500   1510.7568     -228468.15      0             -215970.38      715.05851      1643096.7    
   1754000   1505.8484     -228402.45      0             -215945.29      424.74989      1643108.6    
   1754500   1512.3365     -228458.47      0             -215947.64      234.24333      1643120.6    
   1755000   1509.1429     -228453.53      0             -215969.12      789.43942      1643132.6    
   1755500   1504.744      -228447.41      0             -215999.38      603.45388      1643144.5    
   1756000   1498.3194     -228420.07      0             -216025.19      422.39934      1643156.5    
   1756500   1494.5414     -228404.78      0             -216041.16      468.19403      1643168.4    
   1757000   1502.288      -228473.03      0             -216045.32      121.40751      1643180.3    
   1757500   1501.3579     -228461.92      0             -216041.91      479.16358      1643192.1    
   1758000   1502.1595     -228461.35      0             -216034.71      366.09179      1643204      
   1758500   1499.5513     -228432.96      0             -216027.89      726.05517      1643215.8    
   1759000   1504.1616     -228465.9       0             -216022.7       528.50275      1643227.6    
   1759500   1501.2202     -228438.3       0             -216019.43      490.9946       1643239.4    
   1760000   1502.1247     -228443.61      0             -216017.25      615.7705       1643251.2    
   1760500   1496.4519     -228395.65      0             -216016.22      506.05528      1643262.9    
   1761000   1502.3087     -228441.82      0             -216013.95      437.11194      1643274.7    
   1761500   1498.1304     -228405.04      0             -216011.73      796.13406      1643286.4    
   1762000   1502.3971     -228438.83      0             -216010.22      116.23795      1643298.1    
   1762500   1503.1387     -228440.99      0             -216006.25      568.71261      1643309.8    
   1763000   1505.4874     -228454.59      0             -216000.41      755.08202      1643321.5    
   1763500   1508.0009     -228470.82      0             -215995.85      619.28154      1643333.2    
   1764000   1506.1295     -228455.8       0             -215996.31      703.87338      1643344.8    
   1764500   1500.8683     -228417.81      0             -216001.85      543.82992      1643356.5    
   1765000   1499.0173     -228412.21      0             -216011.56      79.937828      1643368.1    
   1765500   1501.3369     -228444.78      0             -216024.95      588.23981      1643379.7    
   1766000   1497.0052     -228423.85      0             -216039.85      259.69112      1643391.3    
   1766500   1499.6794     -228461.22      0             -216055.09      146.33828      1643402.8    
   1767000   1498.9184     -228459.24      0             -216059.41      185.33152      1643414.4    
   1767500   1499.9681     -228450.79      0             -216042.28      221.86305      1643425.9    
   1768000   1506.153      -228461.76      0             -216002.08      514.23281      1643437.3    
   1768500   1506.4007     -228420.1       0             -215958.37      981.62098      1643448.8    
   1769000   1505.1039     -228384.89      0             -215933.89      759.85459      1643460.2    
   1769500   1506.0104     -228392.06      0             -215933.56      408.01686      1643471.7    
   1770000   1502.3495     -228383.89      0             -215955.67      671.34201      1643483.2    
   1770500   1506.8349     -228462.46      0             -215997.14      386.30542      1643494.6    
   1771000   1497.0087     -228427.46      0             -216043.43      536.03623      1643506.1    
   1771500   1497.9079     -228452.77      0             -216061.3       306.21819      1643517.5    
   1772000   1495.8495     -228432.77      0             -216058.33      649.4251       1643528.9    
   1772500   1494.7715     -228411.39      0             -216045.87      533.84085      1643540.3    
   1773000   1500.9021     -228442.66      0             -216026.42      706.29117      1643551.7    
   1773500   1498.44       -228401.26      0             -216005.38      759.02561      1643563.1    
   1774000   1502.3942     -228412.81      0             -215984.22      555.28885      1643574.4    
   1774500   1502.602      -228399.01      0             -215968.7       782.20471      1643585.7    
   1775000   1504.2441     -228408.04      0             -215964.15      860.1931       1643597.1    
   1775500   1502.82       -228413.09      0             -215980.98      419.78892      1643608.5    
   1776000   1499.9528     -228440.63      0             -216032.24      445.5839       1643619.9    
   1776500   1494.435      -228445.75      0             -216083.01      324.24421      1643631.2    
   1777000   1496.3562     -228479.57      0             -216100.93      102.45805      1643642.6    
   1777500   1490.8229     -228422.95      0             -216090.09      436.85231      1643653.9    
   1778000   1497.3823     -228442.66      0             -216055.53      330.56705      1643665.1    
   1778500   1494.771      -228379.3       0             -216013.77      619.65072      1643676.4    
   1779000   1499.7877     -228395.17      0             -215988.14      383.96678      1643687.6    
   1779500   1499.5864     -228382.97      0             -215977.61      420.24522      1643698.8    
   1780000   1500.8752     -228392.34      0             -215976.32      679.10075      1643710      
   1780500   1504.7995     -228428.21      0             -215979.73      209.03091      1643721.2    
   1781000   1500.3748     -228398.93      0             -215987.05      378.83183      1643732.3    
   1781500   1498.6847     -228397.27      0             -215999.37      789.16542      1643743.4    
   1782000   1502.4433     -228451.82      0             -216022.82      127.05177      1643754.6    
   1782500   1494.5672     -228432.85      0             -216069.01      244.39383      1643765.7    
   1783000   1492.4159     -228461.13      0             -216115.09      157.20604      1643776.7    
   1783500   1495.868      -228503.35      0             -216128.75      129.11815      1643787.7    
   1784000   1494.4456     -228465.93      0             -216103.1       166.46874      1643798.6    
   1784500   1496.415      -228425.01      0             -216045.88      375.23668      1643809.5    
   1785000   1502.1809     -228434.88      0             -216008.06      509.43736      1643820.4    
   1785500   1503.5482     -228431.15      0             -215993.02      190.19765      1643831.2    
   1786000   1499.6001     -228391.64      0             -215986.17      444.05385      1643842      
   1786500   1497.7383     -228372.78      0             -215982.71      530.58297      1643852.8    
   1787000   1497.8162     -228374.65      0             -215983.94      521.74812      1643863.6    
   1787500   1496.2938     -228369.46      0             -215991.34      692.49597      1643874.3    
   1788000   1500.8869     -228424.24      0             -216008.12      227.56623      1643885.1    
   1788500   1496.5755     -228413.76      0             -216033.31      577.17433      1643895.8    
   1789000   1494.738      -228424.79      0             -216059.54      470.06875      1643906.5    
   1789500   1497.1985     -228462.04      0             -216076.44      266.09157      1643917.1    
   1790000   1493.5374     -228428.09      0             -216072.78      329.88781      1643927.7    
   1790500   1493.9956     -228396.48      0             -216037.37      802.24819      1643938.3    
   1791000   1505.6391     -228436.61      0             -215981.18      397.01815      1643948.8    
   1791500   1507.4402     -228417.05      0             -215946.72      432.73586      1643959.3    
   1792000   1501.7905     -228362.17      0             -215938.58      588.46668      1643969.8    
   1792500   1498.3712     -228343.61      0             -215948.3       512.71869      1643980.4    
   1793000   1505.0861     -228419.88      0             -215969.02      481.01743      1643990.9    
   1793500   1499.8246     -228405.55      0             -215998.22      357.33261      1644001.3    
   1794000   1495.598      -228400.69      0             -216028.32      335.09861      1644011.8    
   1794500   1500.1311     -228458.93      0             -216049.07      216.02499      1644022.3    
   1795000   1501.3362     -228478.44      0             -216058.6       113.7772       1644032.7    
   1795500   1491.5328     -228385.62      0             -216046.89      376.86931      1644043.1    
   1796000   1500.7401     -228400.59      0             -215985.69      668.37557      1644053.5    
   1796500   1505.1618     -228384.42      0             -215932.94      325.19737      1644063.8    
   1797000   1506.4862     -228374.47      0             -215912.04      716.36955      1644074.1    
   1797500   1501.5245     -228337.52      0             -215916.13      742.07194      1644084.5    
   1798000   1504.2469     -228388.6       0             -215944.69      596.10306      1644094.8    
   1798500   1501.8052     -228410.82      0             -215987.1       194.70026      1644105.2    
   1799000   1499.6669     -228427.84      0             -216021.81      465.45606      1644115.5    
   1799500   1502.8897     -228471.09      0             -216038.4       154.97539      1644125.8    
   1800000   1493.3878     -228391.01      0             -216036.93      399.66058      1644136      
   1800500   1498.4955     -228416.04      0             -216019.71      421.98098      1644146.2    
   1801000   1502.8706     -228420.75      0             -215988.22      341.89722      1644156.4    
   1801500   1504.8171     -228391.09      0             -215942.46      413.29826      1644166.6    
   1802000   1507.893      -228369.97      0             -215895.89      765.02794      1644176.8    
   1802500   1508.8911     -228352.78      0             -215870.45      1019.0828      1644187      
   1803000   1506.5372     -228343.65      0             -215880.79      625.80623      1644197.3    
   1803500   1498.8927     -228361.69      0             -215962.07      437.31053      1644207.5    
   1804000   1496.8109     -228408.95      0             -216026.55      482.42239      1644217.7    
   1804500   1496.5254     -228422.78      0             -216042.74      369.24207      1644227.9    
   1805000   1495.2607     -228413.15      0             -216043.57      456.53367      1644238.1    
   1805500   1499.1564     -228433.8       0             -216032         428.94094      1644248.3    
   1806000   1498.5217     -228406.13      0             -216009.58      440.41525      1644258.4    
   Loop
