LAMMPS (2 Aug 2023)
Lattice spacing in x,y,z = 5.5392 5.5392 5.5392
Created orthogonal box = (0 0 0) to (110.784 110.784 110.784)
  2 by 4 by 4 MPI processor grid
Created 64000 atoms
  using lattice units in orthogonal box = (0 0 0) to (110.784 110.784 110.784)
  create_atoms CPU = 0.023 seconds
32000 atoms in group Ba
32000 atoms in group O
WARNING: 23463 of 50000 force values in table Vash_11 are inconsistent with -dE/dr.
WARNING:  Should only be flagged at inflection points (../pair_table.cpp:466)
WARNING: 43814 of 50000 distance values in table 1e-06 with relative error
WARNING:  over Vash_11 to re-computed values (../pair_table.cpp:474)
WARNING: 23576 of 50000 force values in table Vash_12 are inconsistent with -dE/dr.
WARNING:  Should only be flagged at inflection points (../pair_table.cpp:466)
WARNING: 43814 of 50000 distance values in table 1e-06 with relative error
WARNING:  over Vash_12 to re-computed values (../pair_table.cpp:474)
WARNING: 23794 of 50000 force values in table Vash_22 are inconsistent with -dE/dr.
WARNING:  Should only be flagged at inflection points (../pair_table.cpp:466)
WARNING: 43814 of 50000 distance values in table 1e-06 with relative error
WARNING:  over Vash_22 to re-computed values (../pair_table.cpp:474)
Generated 0 of 1 mixed pair_coeff terms from geometric mixing rule
Neighbor list info ...
  update: every = 8 steps, delay = 0 steps, check = yes
  max neighbors/atom: 2000, page size: 100000
  master list distance cutoff = 11
  ghost atom cutoff = 11
  binsize = 5.5, bins = 21 21 21
  1 neighbor lists, perpetual/occasional/extra = 1 0 0
  (1) pair table, perpetual
      attributes: half, newton on
      pair build: half/bin/atomonly/newton
      stencil: half/bin/3d
      bin: standard
Setting up Verlet run ...
  Unit style    : metal
  Current step  : 0
  Time step     : 0.001
Per MPI rank memory allocation (min/avg/max) = 4.131 | 4.131 | 4.131 Mbytes
   Step          Temp          E_pair         E_mol          TotEng         Press          Volume    
         0   1900          -243821.04      0             -228103.25      12034.982      1359662.5    
       500   987.36033     -235962.5       0             -227794.54      44033.727      1359664.3    
      1000   1044.4349     -235973.22      0             -227333.12      44734.063      1359669.7    
      1500   1063.102      -235597.43      0             -226802.9       46693.284      1359678.9    
      2000   1102.5066     -235342.47      0             -226221.97      48105.056      1359691.9    
      2500   1147.5686     -235093.18      0             -225599.89      49558.309      1359708.8    
      3000   1188.8673     -234777.01      0             -224942.09      51330.976      1359729.9    
      3500   1235.766      -234476.33      0             -224253.43      52851.762      1359755.2    
      4000   1276.0228     -234093.76      0             -223537.83      54715.869      1359784.9    
      4500   1324.8646     -233759.76      0             -222799.79      56726.93       1359819.1    
      5000   1373.473      -233405.15      0             -222043.07      58463.403      1359858      
      5500   1426.339      -233072.03      0             -221272.61      60256.656      1359901.7    
      6000   1475.4494     -232699.06      0             -220493.37      62175.809      1359950.3    
      6500   1525.1203     -232327.26      0             -219710.67      64057.728      1360004.1    
      7000   1575.2348     -231962.15      0             -218930.98      66067.155      1360063.2    
      7500   1627.6277     -231625.3       0             -218160.72      67733.501      1360127.7    
      8000   1678.3746     -231292.76      0             -217408.38      69573.079      1360197.8    
      8500   1726.3556     -230963.76      0             -216682.45      71277.284      1360273.7    
      9000   1772.7878     -230657.55      0             -215992.13      72772.413      1360355.4    
      9500   1814.16       -230357.46      0             -215349.78      74331.697      1360443.1    
     10000   1852.2581     -230091.42      0             -214768.58      75643.606      1360537      
     10500   1880.6575     -229821.04      0             -214263.26      76735.137      1360637      
     11000   1903.5178     -229601.67      0             -213854.78      77998.048      1360743.3    
     11500   1931.7664     -229544.78      0             -213564.2       78366.426      1360856      
     12000   1939.4777     -229464.87      0             -213420.5       78795.801      1360975.1    
     12500   1942.8281     -229518.47      0             -213446.38      78501.254      1361100.5    
     13000   1928.3319     -229581.61      0             -213629.45      78023.898      1361232.2    
     13500   1910.0289     -229702.58      0             -213901.82      77347.807      1361370.3    
     14000   1889.8043     -229809.89      0             -214176.44      76647.514      1361514.5    
     14500   1874.4042     -229895.85      0             -214389.8       76203.895      1361664.7    
     15000   1880.6359     -230060.93      0             -214503.33      75390.817      1361821      
     15500   1869.5759     -229962.38      0             -214496.28      75628.107      1361983.1    
     16000   1882.7182     -229947.13      0             -214372.31      75965.124      1362151.1    
     16500   1889.1241     -229798.36      0             -214170.54      76501.176      1362324.8    
     17000   1900.509      -229672.38      0             -213950.38      77090.339      1362504.3    
     17500   1921.4199     -229664.58      0             -213769.59      77063.545      1362689.4    
     18000   1922.2164     -229570.34      0             -213668.77      77546.303      1362880.2    
     18500   1924.78       -229592.53      0             -213669.75      77233.583      1363076.4    
     19000   1917.4896     -229633.81      0             -213771.34      76899.04       1363278.1    
     19500   1910.2222     -229745.57      0             -213943.22      76025.074      1363485.1    
     20000   1886.3996     -229740.4       0             -214135.12      76107.541      1363697.1    
     20500   1881.2381     -229859.22      0             -214296.64      75462.401      1363914      
     21000   1877.2722     -229919.66      0             -214389.88      74979.477      1364135.7    
     21500   1873.6828     -229895.34      0             -214395.26      74941.992      1364361.9    
     22000   1881.9536     -229879.75      0             -214311.25      75107.099      1364592.5    
     22500   1882.9991     -229741.26      0             -214164.12      75462.999      1364827.3    
     23000   1904.5051     -229749.52      0             -213994.46      75509.815      1365066.2    
     23500   1907.7463     -229632.37      0             -213850.5       75852.735      1365308.9    
     24000   1914.9867     -229607.25      0             -213765.48      76184.233      1365555.3    
     24500   1917.7811     -229625.16      0             -213760.28      76018.672      1365805.2    
     25000   1918.1041     -229703.17      0             -213835.62      75564.153      1366058.4    
     25500   1911.0406     -229778.99      0             -213969.87      74820.299      1366314.7    
     26000   1900.6478     -229846.81      0             -214123.66      74496.494      1366573.7    
     26500   1888.541      -229880.11      0             -214257.12      74148.191      1366835.3    
     27000   1884.235      -229924.78      0             -214337.41      73805.395      1367099.1    
     27500   1876.6822     -229873.11      0             -214348.21      73981.228      1367364.9    
     28000   1878.7587     -229827.81      0             -214285.74      73997.211      1367632.5    
     28500   1895.0339     -229845.52      0             -214168.82      74025.995      1367901.5    
     29000   1891.117      -229675.02      0             -214030.72      74670.112      1368171.9    
     29500   1911.0019     -229717.08      0             -213908.28      74400.697      1368443.4    
     30000   1913.5924     -229662.14      0             -213831.91      74267.686      1368715.7    
     30500   1911.5046     -229634.36      0             -213821.4       74381.104      1368988.8    
     31000   1920.4443     -229766.38      0             -213879.47      73757.4        1369262.2    
     31500   1908.3863     -229776.14      0             -213988.98      73693.896      1369535.9    
     32000   1896.6546     -229808.4       0             -214118.29      73209.669      1369809.5    
     32500   1889.0957     -229862.63      0             -214235.05      72802.62       1370082.9    
     33000   1883.8442     -229893.03      0             -214308.89      72412.942      1370355.8    
     33500   1880.8311     -229881.56      0             -214322.35      72636.707      1370628.1    
     34000   1885.285      -229866.92      0             -214270.86      72524.89       1370899.5    
     34500   1895.4456     -229848.6       0             -214168.49      72367.381      1371170      
     35000   1913.0242     -229870.29      0             -214044.76      72475.055      1371439.4    
     35500   1908.2694     -229720.54      0             -213934.35      72781.363      1371707.6    
     36000   1909.8658     -229664.16      0             -213864.76      73009.301      1371974.5    
     36500   1917.509      -229715.09      0             -213852.46      72571.231      1372240      
     37000   1909.2248     -229695.77      0             -213901.67      72694.09       1372504      
     37500   1911.5186     -229812.44      0             -213999.36      72076.857      1372766.6    
     38000   1896.997      -229810.03      0             -214117.08      72164.607      1373027.5    
     38500   1893.7011     -229889.79      0             -214224.11      71513.161      1373286.7    
     39000   1887.7198     -229909.19      0             -214292.99      71570.445      1373544.1    
     39500   1880.1804     -229861.16      0             -214307.33      71288.369      1373799.8    
     40000   1889.2562     -229892.31      0             -214263.4       71072.219      1374053.6    
     40500   1890.5524     -229813.33      0             -214173.7       71421.977      1374305.7    
     41000   1907.5686     -229843.13      0             -214062.73      71318.796      1374556.1    
     41500   1902.6121     -229700.55      0             -213961.15      71800.148      1374804.7    
     42000   1904.2648     -229648.24      0             -213895.17      71767.106      1375051.7    
     42500   1907.8469     -229663.87      0             -213881.17      71686.813      1375297      
     43000   1912.0497     -229740.66      0             -213923.19      71327.781      1375540.8    
     43500   1903.1994     -229754.61      0             -214010.35      70970.326      1375783.2    
     44000   1899.7626     -229833.38      0             -214117.56      70429.665      1376024      
     44500   1890.5911     -229855.59      0             -214215.64      70223.16       1376263.4    
     45000   1886.7572     -229886.6       0             -214278.37      70285.267      1376501.5    
     45500   1884.3544     -229879.82      0             -214291.46      70043.76       1376738.3    
     46000   1888.281      -229872.55      0             -214251.71      70146.585      1376973.9    
     46500   1890.7708     -229812.1       0             -214170.66      70116.448      1377208.3    
     47000   1900.6913     -229794.06      0             -214070.55      70085.672      1377441.7    
     47500   1910.8357     -229785.6       0             -213978.17      70313.513      1377674.1    
     48000   1907.8936     -229702.01      0             -213918.92      70565.067      1377905.8    
     48500   1920.0831     -229792.37      0             -213908.45      70102.564      1378136.7    
     49000   1911.4533     -229761.31      0             -213948.77      70197.106      1378367      
     49500   1908.9415     -229820.5       0             -214028.75      69686.311      1378596.6    
     50000   1899.1016     -229836.94      0             -214126.59      69594.065      1378825.8    
     50500   1891.6513     -229864.5       0             -214215.78      69360.669      1379054.5    
     51000   1888.1546     -229893.45      0             -214273.65      69038.554      1379282.8    
     51500   1884.0586     -229870.39      0             -214284.48      69133.913      1379510.8    
     52000   1894          -229914.65      0             -214246.49      68852.154      1379738.5    
     52500   1895.377      -229851.53      0             -214171.99      68979.218      1379966      
     53000   1903.9355     -229828.84      0             -214078.5       69017.487      1380193.4    
     53500   1907.294      -229769.61      0             -213991.49      69219.275      1380420.8    
     54000   1910.9771     -229742.62      0             -213934.02      69039.243      1380648.1    
     54500   1916.7316     -229777.28      0             -213921.08      68990.576      1380875.6    
     55000   1911.7314     -229771.65      0             -213956.81      69064.11       1381103.2    
     55500   1899.2536     -229742.75      0             -214031.13      68899.191      1381331      
     56000   1893.6812     -229789.32      0             -214123.8       68649.453      1381559.1    
     56500   1893.3049     -229871.77      0             -214209.37      67894.33       1381787.3    
     57000   1891.097      -229908.92      0             -214264.79      67913.362      1382015.8    
     57500   1890.4666     -229915.34      0             -214276.42      67718.267      1382244.5    
     58000   1893.5228     -229905.55      0             -214241.34      67646.159      1382473.5    
     58500   1893.8529     -229837.07      0             -214170.13      68016.305      1382702.8    
     59000   1896.0369     -229766.57      0             -214081.57      68002.165      1382932.4    
     59500   1901.1259     -229727.76      0             -214000.66      68175.728      1383162.4    
     60000   1911.9832     -229764.17      0             -213947.25      67974.523      1383392.7    
     60500   1917.8722     -229801.88      0             -213936.25      67811.43       1383623.5    
     61000   1902.6574     -229709.86      0             -213970.09      68153.935      1383854.6    
     61500   1903.4087     -229784.3       0             -214038.32      67732.557      1384086.2    
     62000   1896.3015     -229809.54      0             -214122.35      67482.463      1384318.1    
     62500   1900.4195     -229920.31      0             -214199.05      66860.296      1384550.4    
     63000   1889.581      -229880.58      0             -214248.98      66921.969      1384783      
     63500   1885.0446     -229854.95      0             -214260.88      66670.198      1385015.8    
     64000   1892.6848     -229888.34      0             -214231.07      66459.252      1385249      
     64500   1897.5854     -229864.99      0             -214167.18      66649.41       1385482.4    
     65000   1902.6451     -229826.37      0             -214086.7       66791.213      1385716.1    
     65500   1911.4561     -229824.44      0             -214011.88      66929.492      1385950      
     66000   1907.4465     -229740.34      0             -213960.95      66967.933      1386184.2    
     66500   1904.7964     -229704.35      0             -213946.88      67242.984      1386418.6    
     67000   1909.8377     -229773.37      0             -213974.2       66599.2        1386653.2    
     67500   1904.0802     -229787.97      0             -214036.43      66646.501      1386887.9    
     68000   1902.649      -229856.49      0             -214116.79      66172.882      1387122.8    
     68500   1887.0747     -229803.21      0             -214192.34      65918.297      1387357.7    
     69000   1894.2028     -229911.53      0             -214241.7       65657.528      1387592.7    
     69500   1893.0006     -229915.25      0             -214255.37      65486.399      1387827.6    
     70000   1889.5218     -229858.44      0             -214227.34      65570.768      1388062.5    
     70500   1898.9117     -229874.08      0             -214165.29      65689.767      1388297.3    
     71000   1903.8907     -229835.61      0             -214085.63      65799.45       1388532      
     71500   1903.3508     -229755.39      0             -214009.88      66186.664      1388766.6    
     72000   1901.9706     -229692.56      0             -213958.46      66147.689      1389001      
     72500   1913.1455     -229770.15      0             -213943.61      65655.172      1389235.3    
     73000   1910.0414     -229771.77      0             -213970.91      65807.494      1389469.3    
     73500   1898.7976     -229739.77      0             -214031.93      65438.421      1389703.1    
     74000   1897.1614     -229805.56      0             -214111.26      65282.298      1389936.6    
     74500   1894.7094     -229859.44      0             -214185.41      65035.01       1390169.8    
     75000   1887.7794     -229850.99      0             -214234.3       64970.904      1390402.6    
     75500   1886.9696     -229856.48      0             -214246.48      64864.309      1390634.9    
     76000   1895.7518     -229900.34      0             -214217.7       64511.817      1390866.8    
     76500   1895.9347     -229841.97      0             -214157.81      64809.046      1391098.2    
     77000   1897.1161     -229774.76      0             -214080.83      64854.797      1391329.1    
     77500   1907.0524     -229784.9       0             -214008.77      64650.49       1391559.5    
     78000   1904.2494     -229712.62      0             -213959.67      65083.006      1391789.3    
     78500   1907.8911     -229728.45      0             -213945.38      64518.501      1392018.7    
     79000   1910.2381     -229773.5       0             -213971.02      64587.704      1392247.4    
     79500   1902.8411     -229770.49      0             -214029.2       64297.193      1392475.5    
     80000   1895.0044     -229780         0             -214103.54      64388.667      1392703.1    
     80500   1895.319      -229853.58      0             -214174.51      63915.923      1392929.9    
     81000   1889.5083     -229855.31      0             -214224.32      63742.929      1393156.1    
     81500   1889.547      -229870.93      0             -214239.62      63415.364      1393381.6    
     82000   1892.1599     -229868.93      0             -214216         63557.436      1393606.3    
     82500   1896.9989     -229852.68      0             -214159.72      63540.475      1393830.3    
     83000   1902.7142     -229826.72      0             -214086.48      63902.903      1394053.6    
     83500   1909.1288     -229808.76      0             -214015.45      63714.619      1394276.1    
     84000   1905.2664     -229726.87      0             -213965.51      63975.769      1394497.9    
     84500   1909.8621     -229748.06      0             -213948.69      63622.234      1394718.9    
     85000   1905.245      -229732.43      0             -213971.26      63554.986      1394939.3    
     85500   1901.9014     -229758.6       0             -214025.08      63366.79       1395158.8    
     86000   1893.67       -229761.39      0             -214095.97      63105.626      1395377.6    
     86500   1890.5063     -229802.84      0             -214163.59      63131.384      1395595.7    
     87000   1890.2333     -229847.37      0             -214210.38      62655.129      1395812.9    
     87500   1889.4775     -229855.15      0             -214224.41      62568.285      1396029.3    
     88000   1891.2455     -229846.88      0             -214201.51      62661.043      1396245      
     88500   1900.9334     -229873.03      0             -214147.52      62362.035      1396459.8    
     89000   1900.9453     -229801.9       0             -214076.29      62811.642      1396673.9    
     89500   1909.5224     -229804.8       0             -214008.23      62688.882      1396887.1    
     90000   1916.2347     -229813.36      0             -213961.27      62581.038      1397099.7    
     90500   1912.3252     -229767.09      0             -213947.34      62557.306      1397311.5    
     91000   1907.796      -229754.23      0             -213971.95      62748.371      1397522.6    
     91500   1893.4015     -229690.67      0             -214027.46      62864.365      1397732.9    
     92000   1904.3135     -229851.83      0             -214098.36      62073.212      1397942.6    
     92500   1895.3358     -229843.7       0             -214164.5       61919.482      1398151.5    
     93000   1885.7862     -229808.04      0             -214207.83      61717.919      1398359.7    
     93500   1890.2492     -229854.49      0             -214217.37      61639.285      1398567.1    
     94000   1892.7176     -229847.54      0             -214189.99      61516.757      1398773.9    
     94500   1888.1394     -229752.24      0             -214132.57      61618.581      1398979.9    
     95000   1900.2452     -229781.32      0             -214061.51      61897.119      1399185.2    
     95500   1896.9959     -229688.37      0             -213995.43      62032.368      1399389.9    
     96000   1908.4493     -229740.61      0             -213952.92      61997.926      1399594      
     96500   1910.5632     -229747.94      0             -213942.77      61804.247      1399797.4    
     97000   1907.0426     -229744.03      0             -213967.98      61696.609      1400000.3    
     97500   1905.4274     -229784.45      0             -214021.77      61351.934      1400202.5    
     98000   1901.5896     -229819.68      0             -214088.74      61142.808      1400404.2    
     98500   1902.252      -229887.05      0             -214150.63      60491.723      1400605.2    
     99000   1891.6511     -229839.19      0             -214190.47      60739.265      1400805.7    
     99500   1893.5613     -229861.53      0             -214197.01      60756.797      1401005.6    
    100000   1889.6007     -229800.8       0             -214169.04      60779.831      1401204.8    
    100500   1894.7647     -229789.85      0             -214115.37      60877.738      1401403.6    
    101000   1901.7588     -229782.02      0             -214049.68      61016.155      1401601.8    
    101500   1912.9946     -229816.08      0             -213990.79      60817.168      1401799.4    
    102000   1897.3428     -229648.5       0             -213952.69      61081.821      1401996.6    
    102500   1903.6783     -229694.29      0             -213946.07      61009.672      1402193.3    
    103000   1916.1743     -229824.36      0             -213972.77      60691.419      1402389.6    
    103500   1904.6759     -229781.42      0             -214024.95      60516.68       1402585.4    
    104000   1890.8058     -229730.3       0             -214088.57      60594.24       1402780.8    
    104500   1891.5648     -229792.16      0             -214144.15      60292.032      1402975.7    
    105000   1890.8604     -229820.83      0             -214178.65      60198.959      1403170.1    
    105500   1900.202      -229902.58      0             -214183.12      60061.744      1403364.2    
    106000   1891.145      -229801.79      0             -214157.25      60118.356      1403557.7    
    106500   1894.3675     -229777.36      0             -214106.17      60164.935      1403750.9    
    107000   1900.5086     -229763.22      0             -214041.23      59936.971      1403943.6    
    107500   1901.6287     -229713.77      0             -213982.51      60433.59       1404136      
    108000   1915.4103     -229789.07      0             -213943.8       59840.869      1404328      
    108500   1913.5337     -229765.87      0             -213936.13      59821.188      1404519.7    
    109000   1907.3199     -229738.34      0             -213960         59718.932      1404711      
    109500   1892.7215     -229667.98      0             -214010.4       60115.509      1404902      
    110000   1897.8972     -229771.54      0             -214071.15      59600.606      1405092.7    
    110500   1898.9072     -229835.97      0             -214127.23      59144.869      1405283      
    111000   1900.4656     -229884.57      0             -214162.93      58793.193      1405473      
    111500   1890.1932     -229806.49      0             -214169.83      59177.487      1405662.7    
    112000   1891.1353     -229790.18      0             -214145.72      59443.529      1405852      
    112500   1899.1123     -229807.79      0             -214097.35      59138.998      1406041      
    113000   1906.0262     -229804         0             -214036.37      59117.999      1406229.8    
    113500   1903.6111     -229727.57      0             -213979.91      59451.826      1406418.2    
    114000   1914.1144     -229778.51      0             -213943.96      59343.231      1406606.4    
    114500   1910.3311     -229739.51      0             -213936.26      59397.301      1406794.3    
    115000   1909.12       -229752.83      0             -213959.6       58901.799      1406982      
    115500   1907.1107     -229783.57      0             -214006.96      58567.057      1407169.5    
    116000   1895.9741     -229750.77      0             -214066.29      58858.37       1407356.7    
    116500   1892.0942     -229772.24      0             -214119.86      58491.506      1407543.6    
    117000   1887.879      -229771.16      0             -214153.65      58304.888      1407730.2    
    117500   1894.6993     -229830.77      0             -214156.83      58397.172      1407916.6    
    118000   1895.9073     -229815.05      0             -214131.12      58232.39       1408102.7    
    118500   1897.0567     -229774.61      0             -214081.17      58499.333      1408288.6    
    119000   1900.4963     -229743.62      0             -214021.73      58723.9        1408474.2    
    119500   1907.4848     -229747.16      0             -213967.45      58601.573      1408659.6    
    120000   1907.5072     -229713.45      0             -213933.56      58510.792      1408844.8    
    120500   1909.7292     -229726.81      0             -213928.54      58522.476      1409029.8    
    121000   1912.2987     -229772.82      0             -213953.29      58321.533      1409214.6    
    121500   1903.6267     -229750.38      0             -214002.59      58197.801      1409399.2    
    122000   1900.9592     -229787.65      0             -214061.93      57946.214      1409583.6    
    122500   1895.3141     -229793.91      0             -214114.89      57732.111      1409767.8    
    123000   1888.8366     -229772.94      0             -214147.5       57723.395      1409951.8    
    123500   1891.6002     -229797         0             -214148.7       57628.067      1410135.5    
    124000   1892.1995     -229771.98      0             -214118.72      57559.946      1410319      
    124500   1899.0788     -229775.75      0             -214065.58      57653.794      1410502.3    
    125000   1902.3232     -229740.09      0             -214003.08      57928.861      1410685.4    
    125500   1913.9205     -229781.44      0             -213948.49      57762.4        1410868.4    
    126000   1903.1157     -229660.24      0             -213916.67      57885.562      1411051.1    
    126500   1907.9779     -229699.48      0             -213915.7       57769.026      1411233.7    
    127000   1909.8375     -229744.31      0             -213945.14      57623.213      1411416.1    
    127500   1902.7532     -229736.58      0             -213996.01      57619.048      1411598.3    
    128000   1903.0692     -229798.63      0             -214055.45      57056.668      1411780.4    
    128500   1898.9814     -229815.48      0             -214106.12      57060.042      1411962.3    
    129000   1893.3283     -229797         0             -214134.41      56933.096      1412144      
    129500   1896.2052     -229819.42      0             -214133.03      57008.958      1412325.5    
    130000   1896.9641     -229795.03      0             -214102.36      56959.991      1412506.8    
    130500   1896.7243     -229738.54      0             -214047.85      56977.879      1412687.9    
    131000   1904.8425     -229743.51      0             -213985.66      56957.101      1412868.8    
    131500   1910.8059     -229738.44      0             -213931.26      57062.71       1413049.5    
    132000   1913.1793     -229726.64      0             -213899.83      57157.178      1413230.2    
    132500   1907.3569     -229677.1       0             -213898.45      57045.053      1413410.6    
    133000   1906.6337     -229701.45      0             -213928.79      57042.546      1413590.9    
    133500   1908.7315     -229770.65      0             -213980.63      56601.349      1413771.1    
    134000   1899.0657     -229752.26      0             -214042.2       56334.266      1413951.1    
    134500   1893.4845     -229759.1       0             -214095.21      56457.146      1414130.9    
    135000   1889.2742     -229754.7       0             -214125.65      56359.258      1414310.6    
    135500   1899.4717     -229839.53      0             -214126.12      55808.726      1414490      
    136000   1899.447      -229809.07      0             -214095.86      55927.44       1414669.3    
    136500   1901.165      -229769.74      0             -214042.32      55981.407      1414848.3    
    137000   1908.5463     -229768.7       0             -213980.21      56072.541      1415027.2    
    137500   1901.4235     -229655.43      0             -213925.86      56536.044      1415206      
    138000   1905.8729     -229659.67      0             -213893.3       56274.83       1415384.6    
    138500   1909.6628     -229688.87      0             -213891.14      56258.002      1415563      
    139000   1904.1723     -229672.29      0             -213919.99      56213.608      1415741.3    
    139500   1897.3714     -229666.81      0             -213970.76      56212.239      1415919.5    
    140000   1905.6087     -229792.69      0             -214028.51      55587.739      1416097.5    
    140500   1892.7505     -229737.09      0             -214079.27      55593.073      1416275.4    
    141000   1893.5261     -229772.53      0             -214108.3       55450.72       1416453      
    141500   1898.395      -229811.76      0             -214107.25      55073.047      1416630.5    
    142000   1891.1621     -229720.42      0             -214075.74      55657.231      1416807.8    
    142500   1896.2767     -229708.25      0             -214021.26      55541.3        1416985      
    143000   1906.0809     -229728.06      0             -213959.96      55532.028      1417161.9    
    143500   1904.1619     -229659.89      0             -213907.67      55965.003      1417338.8    
    144000   1916.6158     -229733.66      0             -213878.42      55376.253      1417515.5    
    144500   1909.4128     -229674.71      0             -213879.06      55567.806      1417692.1    
    145000   1897.489      -229607.52      0             -213910.5       55737.615      1417868.5    
    145500   1903.12       -229707.68      0             -213964.08      55247.428      1418044.8    
    146000   1897.0029     -229715.27      0             -214022.28      54878.903      1418220.9    
    146500   1895.2186     -229749.75      0             -214071.52      54853.395      1418396.9    
    147000   1895.4111     -229777.29      0             -214097.47      54900.142      1418572.7    
    147500   1891.1499     -229737.43      0             -214092.86      54762.789      1418748.4    
    148000   1892.9165     -229716.67      0             -214057.48      54798.335      1418923.8    
    148500   1892.0049     -229654.17      0             -214002.52      55329.168      1419099.1    
    149000   1900.5557     -229663.34      0             -213940.96      55131.976      1419274.3    
    149500   1904.5386     -229646.78      0             -213891.45      55284.253      1419449.3    
    150000   1911.2098     -229676.2       0             -213865.68      54610.604      1419624.2    
    150500   1906.0256     -229639.64      0             -213872.01      55103.742      1419798.9    
    151000   1902.6318     -229646.08      0             -213906.53      54841.18       1419973.6    
    151500   1894.7364     -229633.92      0             -213959.68      55094.712      1420148.1    
    152000   1898.9638     -229725.95      0             -214016.73      54367.968      1420322.4    
    152500   1885.4672     -229659.98      0             -214062.42      54059.142      1420496.6    
    153000   1893.0252     -229744.83      0             -214084.75      54072.139      1420670.7    
    153500   1892.7893     -229734.81      0             -214076.68      54418.954      1420844.6    
    154000   1887.7287     -229655.21      0             -214038.94      54243.753      1421018.3    
    154500   1901.4038     -229712.07      0             -213982.67      54361.548      1421191.8    
    155000   1905.0892     -229683.14      0             -213923.25      54450.599      1421365.2    
    155500   1909.4904     -229671.41      0             -213875.12      54254.206      1421538.5    
    156000   1914.0025     -229685.5       0             -213851.88      53995.522      1421711.6    
    156500   1913.52       -229689.54      0             -213859.91      54122.315      1421884.6    
    157000   1905.7576     -229661.52      0             -213896.11      54267.07       1422057.5    
    157500   1905.6114     -229713.35      0             -213949.14      53792.587      1422230.3    
    158000   1891.7268     -229654.39      0             -214005.04      53880.082      1422402.9    
    158500   1901.2122     -229774.04      0             -214046.23      53140.803      1422575.4    
    159000   1895.3027     -229742.87      0             -214063.94      53523.487      1422747.7    
    159500   1892.1986     -229705.04      0             -214051.79      53374.2        1422919.9    
    160000   1905.5194     -229776.5       0             -214013.05      53322.076      1423091.8    
    160500   1899.1378     -229668.8       0             -213958.15      53452.507      1423263.7    
    161000   1906.4939     -229674.6       0             -213903.1       53574.056      1423435.4    
    161500   1904.9356     -229620.06      0             -213861.44      53868.372      1423606.9    
    162000   1907.9629     -229627.32      0             -213843.66      53707.809      1423778.4    
    162500   1912.4806     -229676.51      0             -213855.48      53562.907      1423949.7    
    163000   1904.3918     -229646.86      0             -213892.74      53204.186      1424120.9    
    163500   1906.5262     -229716.58      0             -213944.81      53437.335      1424292      
    164000   1888.7344     -229621.74      0             -213997.14      53393.866      1424462.9    
    164500   1895.1028     -229712.8       0             -214035.53      52986.055      1424633.7    
    165000   1896.9247     -229742.37      0             -214050.02      52758.815      1424804.4    
    165500   1890.7032     -229678         0             -214037.12      52959.197      1424974.9    
    166000   1896.7851     -229690.67      0             -213999.47      52690.546      1425145.2    
    166500   1901.6666     -229677.46      0             -213945.88      53292.608      1425315.4    
    167000   1898.3584     -229595.42      0             -213891.21      53291.393      1425485.5    
    167500   1903.4581     -229597.55      0             -213851.16      53355.52       1425655.5    
    168000   1906.2448     -229602.28      0             -213832.83      53018.286      1425825.3    
    168500   1907.96       -229625.57      0             -213841.93      52899.5        1425995      
    169000   1896.4072     -229562.15      0             -213874.09      52978.267      1426164.7    
    169500   1899.411      -229633.04      0             -213920.12      52658.905      1426334.2    
    170000   1894.8789     -229644.1       0             -213968.68      52591.518      1426503.5    
    170500   1900.9091     -229730.39      0             -214005.08      52167.312      1426672.7    
    171000   1894.2698     -229692.58      0             -214022.19      52351.865      1426841.8    
    171500   1891.0908     -229657.96      0             -214013.88      52525.86       1427010.8    
    172000   1901.1355     -229708.23      0             -213981.05      51887.098      1427179.5    
    172500   1898.3943     -229637.66      0             -213933.15      52362.552      1427348.2    
    173000   1901.1244     -229609.82      0             -213882.73      52534.594      1427516.7    
    173500   1902.804      -229585.45      0             -213844.47      52535.981      1427685.1    
    174000   1915.8449     -229676.37      0             -213827.51      52134.542      1427853.4    
    174500   1907.7776     -229617.67      0             -213835.54      52132.791      1428021.6    
    175000   1899.1663     -229577.14      0             -213866.25      52236.635      1428189.8    
    175500   1891.0862     -229552.67      0             -213908.62      52209.066      1428357.7    
    176000   1897.8578     -229652.07      0             -213952.01      52022.253      1428525.6    
    176500   1897.1974     -229677.48      0             -213982.88      51690.28       1428693.4    
    177000   1888.7742     -229621.06      0             -213996.14      51990.985      1428861      
    177500   1897.0622     -229681.17      0             -213987.68      51506.746      1429028.4    
    178000   1892.6153     -229615.49      0             -213958.79      51638.778      1429195.8    
    178500   1902.0636     -229651.87      0             -213917.01      51795.465      1429363      
    179000   1903.7935     -229624         0             -213874.83      51817.3        1429530.1    
    179500   1906.8831     -229617.53      0             -213842.8       51742.285      1429697      
    180000   1904.7784     -229585.1       0             -213827.79      51603.841      1429863.9    
    180500   1899.6801     -229547.56      0             -213832.41      51579.36       1430030.6    
    181000   1908.3651     -229642.23      0             -213855.24      51287.133      1430197.3    
    181500   1896.8484     -229581.22      0             -213889.5       51715.295      1430363.8    
    182000   1902.3705     -229664.63      0             -213927.24      51071.901      1430530.2    
    182500   1898.3816     -229661.61      0             -213957.21      51210.555      1430696.5    
    183000   1894.0602     -229638.21      0             -213969.56      51287.466      1430862.7    
    183500   1894.6801     -229635.95      0             -213962.17      51397.81       1431028.7    
    184000   1892.4422     -229590.7       0             -213935.43      51360.662      1431194.6    
    184500   1899.8275     -229611.12      0             -213894.76      51123.685      1431360.4    
    185000   1896.3507     -229540.86      0             -213853.26      51147.852      1431526.1    
    185500   1902.6228     -229562.7       0             -213823.21      51371.295      1431691.7    
    186000   1908.4595     -229597.5       0             -213809.73      51201.162      1431857.1    
    186500   1900.467      -229537.96      0             -213816.31      50904.951      1432022.5    
    187000   1900.7363     -229564.59      0             -213840.72      51008.514      1432187.8    
    187500   1898.6576     -229583.21      0             -213876.52      50868.353      1432352.9    
    188000   1892.8712     -229571.56      0             -213912.74      50649.458      1432518      
    188500   1903.2371     -229683.77      0             -213939.2       50366.928      1432682.9    
    189000   1891.1611     -229594.25      0             -213949.58      50847.783      1432847.7    
    189500   1885.6818     -229540.32      0             -213940.98      50726.46       1433012.4    
    190000   1898.5442     -229620.84      0             -213915.09      50589.193      1433177      
    190500   1896.5888     -229567.51      0             -213877.94      50466.568      1433341.4    
    191000   1906.1257     -229606.88      0             -213838.41      50661.897      1433505.7    
    191500   1907.4283     -229586.85      0             -213807.61      50619.271      1433669.9    
    192000   1903.8258     -229543.44      0             -213794         50686.959      1433834.1    
    192500   1899.5459     -229515.61      0             -213801.58      50563.094      1433998.1    
    193000   1904.0305     -229578.17      0             -213827.04      50376.737      1434162      
    193500   1894.7871     -229539.3       0             -213864.64      50401.441      1434325.8    
    194000   1890.0193     -229537.7       0             -213902.48      50183.126      1434489.6    
    194500   1897.695      -229626.9       0             -213928.18      49605.639      1434653.2    
    195000   1895.9863     -229621.07      0             -213936.48      49996.136      1434816.6    
    195500   1901.3493     -229653.76      0             -213924.81      49880.643      1434980      
    196000   1895.7211     -229578.51      0             -213896.11      49879.162      1435143.2    
    196500   1896.1817     -229542.43      0             -213856.23      49971.723      1435306.3    
    197000   1904.6099     -229572.08      0             -213816.16      49802.789      1435469.3    
    197500   1914.1712     -229621.98      0             -213786.96      49552.318      1435632.2    
    198000   1907.6822     -229557.45      0             -213776.11      49707.33       1435795      
    198500   1906.8321     -229559.85      0             -213785.54      49929.492      1435957.7    
    199000   1899.4015     -229525.27      0             -213812.44      49952.611      1436120.3    
    199500   1903.8475     -229598.37      0             -213848.76      49561.109      1436282.8    
    200000   1892.8342     -229543.57      0             -213885.07      49781.752      1436445.2    
    200500   1892.6021     -229567.5       0             -213910.91      49497.325      1436607.5    
    201000   1893.8177     -229584.68      0             -213918.04      49428.386      1436769.7    
    201500   1900.2526     -229626.27      0             -213906.39      49236.126      1436931.8    
    202000   1898.0035     -229577.62      0             -213876.35      49568.277      1437093.8    
    202500   1899.2438     -229548.6       0             -213837.07      49375.68       1437255.6    
    203000   1897.9868     -229500.97      0             -213799.84      49620.91       1437417.3    
    203500   1899.9509     -229490.17      0             -213772.79      49664.188      1437579      
    204000   1900.5453     -229485.55      0             -213763.25      49501.685      1437740.5    
    204500   1907.566      -229553.05      0             -213772.67      49199.291      1437902      
    205000   1898.42       -229503.49      0             -213798.77      49270.162      1438063.3    
    205500   1903.1083     -229575.83      0             -213832.33      48899.881      1438224.6    
    206000   1901.6076     -229596.44      0             -213865.36      48566.587      1438385.8    
    206500   1896.632      -229578.39      0             -213888.46      49053.741      1438546.8    
    207000   1895.4589     -229574.75      0             -213894.53      48798.337      1438707.8    
    207500   1894.561      -229554.66      0             -213881.87      48927.699      1438868.6    
    208000   1894.9127     -229529.27      0             -213853.57      49130.256      1439029.3    
    208500   1895.696      -229499.84      0             -213817.66      48902.061      1439189.9    
    209000   1906.9746     -229557.97      0             -213782.48      48663.332      1439350.4    
    209500   1905.1956     -229519.61      0             -213758.84      48776.766      1439510.8    
    210000   1899.5027     -229466.3       0             -213752.62      48884.142      1439671.1    
    210500   1901.3354     -229493.19      0             -213764.35      48909.742      1439831.4    
    211000   1902.9138     -229531.77      0             -213789.88      48777.942      1439991.5    
    211500   1895.1616     -229499.82      0             -213822.06      48462.73       1440151.6    
    212000   1898.3388     -229555.82      0             -213851.77      48495.172      1440311.5    
    212500   1885.009      -229464.37      0             -213870.6       48657.355      1440471.4    
    213000   1893.582      -229537.87      0             -213873.17      48234.821      1440631.1    
    213500   1898.0466     -229559.44      0             -213857.81      48147.41       1440790.7    
    214000   1900.9583     -229552.75      0             -213827.03      48192.603      1440950.3    
    214500   1907.9966     -229573.23      0             -213789.29      47945.878      1441109.7    
    215000   1902.9465     -229496.93      0             -213754.77      48317.631      1441269      
    215500   1902.5176     -229472.41      0             -213733.8       48430.419      1441428.2    
    216000   1905.982      -229498.96      0             -213731.69      48444.71       1441587.4    
    216500   1905.1406     -229507.74      0             -213747.43      48215.731      1441746.4    
    217000   1897.3375     -229473.71      0             -213777.95      48261.516      1441905.4    
    217500   1904.282      -229566.29      0             -213813.08      47817.51       1442064.3    
    218000   1896.9836     -229536.18      0             -213843.34      47639.131      1442223      
    218500   1896.8737     -229551.04      0             -213859.11      47820.01       1442381.7    
    219000   1895.1617     -229534.25      0             -213856.49      47604.684      1442540.3    
    219500   1894.8307     -229509.59      0             -213834.57      47621.809      1442698.8    
    220000   1903.922      -229548.81      0             -213798.58      47467.093      1442857.1    
    220500   1904.9065     -229518.81      0             -213760.43      47624.358      1443015.4    
    221000   1901.6821     -229460.85      0             -213729.14      47780.031      1443173.5    
    221500   1900.2663     -229432.94      0             -213712.95      47791.788      1443331.6    
    222000   1908.9147     -229507.26      0             -213715.72      47657.48       1443489.6    
    222500   1901.2317     -229463.56      0             -213735.58      47771.173      1443647.5    
    223000   1903.3505     -229511.5       0             -213766         47435.908      1443805.3    
    223500   1902.1112     -229534.42      0             -213799.16      47253.843      1443963.1    
    224000   1891.5531     -229473.32      0             -213825.41      47368.498      1444120.7    
    224500   1889.6177     -229469.45      0             -213837.55      47576.312      1444278.2    
    225000   1902.5148     -229570.6       0             -213832         47097.759      1444435.7    
    225500   1899.6615     -229524.69      0             -213809.7       47194.377      1444593      
    226000   1899.6943     -229493.28      0             -213778.02      47351.748      1444750.2    
    226500   1903.7891     -229492.81      0             -213743.68      47288.743      1444907.4    
    227000   1906.0378     -229482.4       0             -213714.67      47225.702      1445064.4    
    227500   1903.7919     -229448.68      0             -213699.52      46996.622      1445221.4    
    228000   1902.5143     -229439.64      0             -213701.06      47139.038      1445378.3    
    228500   1907.04       -229495.18      0             -213719.15      47034.675      1445535.1    
    229000   1894.3946     -229420.06      0             -213748.64      47279.989      1445691.8    
    229500   1898.5489     -229485.55      0             -213779.77      46820.032      1445848.5    
    230000   1900.0885     -229525.06      0             -213806.54      46739.731      1446005      
    230500   1895.3961     -229499.65      0             -213819.94      46743.533      1446161.4    
    231000   1892.9113     -229476.06      0             -213816.91      46459.357      1446317.8    
    231500   1897.99       -229497.73      0             -213796.56      46350.75       1446474      
    232000   1893.5095     -229427.76      0             -213763.67      46646.449      1446630.1    
    232500   1898.8434     -229433.95      0             -213725.73      46864.414      1446786.1    
    233000   1903.5274     -229440         0             -213693.03      46716.957      1446942      
    233500   1909.7686     -229472.7       0             -213674.1       46534.08       1447097.8    
    234000   1903.6426     -229421.3       0             -213673.38      46653.777      1447253.6    
    234500   1907.3068     -229468.67      0             -213690.43      46265.45       1447409.3    
    235000   1898.2051     -229424.1       0             -213721.16      46548.367      1447564.9    
    235500   1900.6516     -229480.34      0             -213757.16      46446.412      1447720.4    
    236000   1887.8789     -229406.1       0             -213788.59      46613.056      1447875.8    
    236500   1890.8447     -229447.82      0             -213805.77      46255.605      1448031.1    
    237000   1889.4809     -229434.94      0             -213804.18      46502.665      1448186.3    
    237500   1892.3946     -229437.31      0             -213782.44      45997.256      1448341.5    
    238000   1905.4673     -229509.7       0             -213746.68      45828.436      1448496.5    
    238500   1903.8953     -229456.04      0             -213706.03      46058.298      1448651.4    
    239000   1910.4408     -229476.79      0             -213672.63      46091.458      1448806.2    
    239500   1909.6552     -229452.19      0             -213654.53      46454.966      1448961      
    240000   1910.5979     -229462.81      0             -213657.35      46078.411      1449115.7    
    240500   1906.1527     -229446.98      0             -213678.3       45815.835      1449270.3    
    241000   1896.3644     -229400.21      0             -213712.49      45905.829      1449424.9    
    241500   1896.1144     -229434.42      0             -213748.77      46001.139      1449579.3    
    242000   1892.3793     -229432.87      0             -213778.12      45935.769      1449733.7    
    242500   1887.5671     -229405.8       0             -213790.87      46016.499      1449888      
    243000   1895.6406     -229463.32      0             -213781.6       45546.263      1450042.1    
    243500   1900.7618     -229479.3       0             -213755.21      45775.847      1450196.2    
    244000   1907.6931     -229498.38      0             -213716.95      45523.724      1450350.2    
    244500   1902.0406     -229412.08      0             -213677.41      45957.887      1450504.1    
    245000   1902.0097     -229382.34      0             -213647.92      45872.81       1450657.9    
    245500   1905.6991     -229396.99      0             -213632.05      45623.331      1450811.6    
    246000   1899.664      -229349.24      0             -213634.23      45893.409      1450965.3    
    246500   1902.6941     -229395.28      0             -213655.21      45731.827      1451118.9    
    247000   1892.2567     -229343.68      0             -213689.95      45764.758      1451272.4    
    247500   1897.5711     -229424.37      0             -213726.67      45385.125      1451425.9    
    248000   1893.9593     -229423.96      0             -213756.14      45199.114      1451579.2    
    248500   1898.842      -229478.2       0             -213769.99      45076.617      1451732.5    
    249000   1894.1209     -229432.07      0             -213762.91      45209.866      1451885.6    
    249500   1897.7156     -229433.65      0             -213734.76      44964.623      1452038.7    
    250000   1901.3569     -229423.65      0             -213694.64      45225.639      1452191.6    
    250500   1903.4161     -229403.38      0             -213657.33      45208.129      1452344.5    
    251000   1906.7684     -229404.01      0             -213630.23      45391.073      1452497.3    
    251500   1904.8391     -229375.38      0             -213617.56      45430.246      1452650      
    252000   1909.2039     -229416.62      0             -213622.69      45109.629      1452802.6    
    252500   1899.9798     -229363.33      0             -213645.71      45106.151      1452955.2    
    253000   1894.8238     -229358.73      0             -213683.77      44798.058      1453107.7    
    253500   1897.1887     -229420.15      0             -213725.62      44688.941      1453260.1    
    254000   1895.747      -229438.97      0             -213756.36      44623.904      1453412.5    
    254500   1900.6258     -229491.96      0             -213769         44264.571      1453564.7    
    255000   1901.4692     -229482.89      0             -213752.95      44336.71       1453716.8    
    255500   1892.9967     -229350.62      0             -213690.77      45066.945      1453868.8    
    256000   1911.5546     -229435.7       0             -213622.32      44787.447      1454020.7    
    256500   1905.873      -229364.78      0             -213598.41      44794.803      1454172.6    
    257000   1902.9253     -229345.93      0             -213603.94      44816.098      1454324.4    
    257500   1902.0082     -229358.32      0             -213623.92      44674.12       1454476.1    
    258000   1902.862      -229395.65      0             -213654.18      44304.539      1454627.8    
    258500   1895.923      -229373.58      0             -213689.52      44550.348      1454779.3    
    259000   1892.9771     -229382.9       0             -213723.2       44444.26       1454930.8    
    259500   1895.4865     -229434.48      0             -213754.03      44117.448      1455082.2    
    260000   1886.8578     -229391.33      0             -213782.26      44175.376      1455233.4    
    260500   1887.6877     -229407.24      0             -213791.3       43989.045      1455384.6    
    261000   1896.6212     -229446.32      0             -213756.49      44068.201      1455535.7    
    261500   1898.5891     -229395.31      0             -213689.19      44061.035      1455686.6    
    262000   1894.5623     -229310.81      0             -213638         44254.181      1455837.5    
    262500   1898.8952     -229318.89      0             -213610.24      44228.029      1455988.3    
    263000   1895.6623     -229280.83      0             -213598.93      44413.869      1456139      
    263500   1904.6204     -229354.33      0             -213598.32      44279.674      1456289.7    
    264000   1910.7952     -229419.04      0             -213611.95      43800.312      1456440.2    
    264500   1889.0948     -229269.68      0             -213642.11      44528.009      1456590.8    
    265000   1894.3069     -229359.17      0             -213688.48      43939.025      1456741.2    
    265500   1892.5547     -229398.61      0             -213742.41      43764.322      1456891.5    
    266000   1893.2113     -229439.09      0             -213777.46      43437.555      1457041.8    
    266500   1888.4253     -229399.25      0             -213777.21      43561.611      1457191.9    
    267000   1890.9705     -229363.96      0             -213720.87      43959.63       1457342      
    267500   1892.5571     -229291.89      0             -213635.67      43915.528      1457491.9    
    268000   1905.3445     -229365.32      0             -213603.31      43791.554      1457641.8    
    268500   1900.657      -229318.57      0             -213595.34      43985.035      1457791.6    
    269000   1902.8125     -229337.82      0             -213596.76      43826.335      1457941.4    
    269500   1902.2414     -229343.04      0             -213606.71      43704.047      1458091.1    
    270000   1907.8049     -229404.42      0             -213622.07      43394.118      1458240.7    
    270500   1891.9028     -229292.39      0             -213641.59      43626.453      1458390.2    
    271000   1892.4564     -229321.08      0             -213665.69      43544.622      1458539.7    
    271500   1893.4771     -229350.99      0             -213687.16      43573.505      1458689.1    
    272000   1894.2133     -229366.41      0             -213696.5       43472.115      1458838.3    
    272500   1893.9196     -229346.23      0             -213678.74      43252.208      1458987.5    
    273000   1905.6544     -229392.41      0             -213627.84      43000.878      1459136.6    
    273500   1898.1028     -229274.46      0             -213572.37      43520.921      1459285.6    
    274000   1905.0662     -229302.29      0             -213542.59      43358.525      1459434.6    
    274500   1906.9777     -229313.68      0             -213538.17      43379.144      1459583.4    
    275000   1902.4377     -229290.7       0             -213552.75      43470.25       1459732.2    
    275500   1903.7434     -229333.41      0             -213584.66      43087.86       1459881      
    276000   1892.9392     -229292.6       0             -213633.23      43321.015      1460029.7    
    276500   1895.4142     -229373.83      0             -213693.98      42972.397      1460178.3    
    277000   1892.1178     -229400.24      0             -213747.66      42753.338      1460326.8    
    277500   1892.3509     -229427.84      0             -213773.33      42609.346      1460475.2    
    278000   1891.4376     -229389.48      0             -213742.52      42303.074      1460623.5    
    278500   1889.8899     -229267.36      0             -213633.2       43064.532      1460771.7    
    279000   1899.2845     -229290         0             -213578.13      42820.852      1460919.8    
    279500   1905.8474     -229317.05      0             -213550.89      42906.361      1461067.8    
    280000   1907.5147     -229316.75      0             -213536.8       42779.906      1461215.8    
    280500   1905.4053     -229298.32      0             -213535.82      43007.346      1461363.7    
    281000   1901.4446     -229277.52      0             -213547.78      42674.709      1461511.6    
    281500   1908.0443     -229356.93      0             -213572.6       42642.842      1461659.3    
    282000   1902.1988     -229341.36      0             -213605.38      42471.062      1461807      
    282500   1890.9719     -229280.49      0             -213637.39      42551.579      1461954.7    
    283000   1894.0568     -229328.41      0             -213659.79      42474.304      1462102.2    
    283500   1902.6292     -229402.38      0             -213662.84      42136.013      1462249.7    
    284000   1892.3867     -229287         0             -213632.19      42695.32       1462397      
    284500   1896.4235     -229251.36      0             -213563.15      42721.176      1462544.3    
    285000   1900.7031     -229235.12      0             -213511.51      42597.232      1462691.5    
    285500   1893.763      -229162.02      0             -213495.83      42781.733      1462838.7    
    286000   1890.0899     -229138.39      0             -213502.58      43150.433      1462985.8    
    286500   1906.2055     -229294.73      0             -213525.6       42462.735      1463132.8    
    287000   1901.6789     -229294.19      0             -213562.52      42039.791      1463279.8    
    287500   1892.0217     -229257.49      0             -213605.71      42393.94       1463426.7    
    288000   1891.0608     -229291.53      0             -213647.69      42003.982      1463573.6    
    288500   1889.2526     -229315.45      0             -213686.57      41847          1463720.3    
    289000   1893.7893     -229388.84      0             -213722.43      41851.943      1463867      
    289500   1887.5987     -229349.32      0             -213734.12      41617.311      1464013.5    
    290000   1892.555      -229345         0             -213688.8       41746.391      1464159.9    
    290500   1894.1016     -229281.44      0             -213612.45      41767.999      1464306.3    
    291000   1902.3235     -229295.86      0             -213558.85      42027.24       1464452.5    
    291500   1903.4873     -229274.01      0             -213527.37      41858.827      1464598.7    
    292000   1900.6777     -229230.32      0             -213506.92      42048.963      1464744.8    
    292500   1904.799      -229254.85      0             -213497.36      41768.839      1464890.9    
    293000   1905.5681     -229261.58      0             -213497.73      41905.88       1465036.9    
    293500   1899.0277     -229220.57      0             -213510.82      41949.463      1465182.8    
    294000   1904.3989     -229294.75      0             -213540.58      41537.479      1465328.7    
    294500   1903.1963     -229331.77      0             -213587.54      41280.914      1465474.5    
    295000   1891.2505     -229279.75      0             -213634.34      41303.506      1465620.2    
    295500   1893.7835     -229328.44      0             -213662.08      41276.368      1465765.9    
    296000   1886.8364     -229264.5       0             -213655.61      41335.592      1465911.4    
    296500   1896.2219     -229280.53      0             -213593.99      41328.38       1466056.9    
    297000   1897.5864     -229213.7       0             -213515.88      41648.853      1466202.2    
    297500   1901.9856     -229220.52      0             -213486.31      41509.997      1466347.6    
    298000   1894.6048     -229153.6       0             -213480.44      41611.765      1466492.8    
    298500   1911.9719     -229303.3       0             -213486.47      41170.532      1466638      
    299000   1907.445      -229282.85      0             -213503.47      41053.742      1466783.1    
    299500   1906.3603     -229301.4       0             -213531         40961.557      1466928.1    
    300000   1894.387      -229236.74      0             -213565.38      41301.005      1467073.1    
    300500   1892.1633     -229251.72      0             -213598.76      41225.697      1467218      
    301000   1889.0365     -229251.95      0             -213624.86      41051.591      1467362.8    
    301500   1895.9542     -229313.6       0             -213629.28      41050.992      1467507.5    
    302000   1900.9771     -229315.77      0             -213589.9       40812.13       1467652.2    
    302500   1900.919      -229242.18      0             -213516.79      40935.158      1467796.7    
    303000   1906.7015     -229243.74      0             -213470.51      41117.864      1467941.2    
    303500   1898.4298     -229156.86      0             -213452.06      41308.012      1468085.7    
    304000   1908.5402     -229239.37      0             -213450.93      40882.718      1468230.1    
    304500   1902.2593     -229200.42      0             -213463.94      41205.031      1468374.4    
    305000   1898.1517     -229194.12      0             -213491.62      40925.293      1468518.7    
    305500   1892.9028     -229193.42      0             -213534.34      40833.42       1468662.9    
    306000   1891.3193     -229233.32      0             -213587.35      40660.273      1468807      
    306500   1887.9378     -229248.74      0             -213630.74      40615.927      1468951      
    307000   1887.4847     -229258.01      0             -213643.75      40788.651      1469095      
    307500   1886.0661     -229202.99      0             -213600.47      40835.85       1469238.8    
    308000   1896.6958     -229195.24      0             -213504.79      40529.096      1469382.6    
    308500   1896.3996     -229148.64      0             -213460.64      41067.555      1469526.3    
    309000   1900.0676     -229164.34      0             -213446         40859.675      1469669.9    
    309500   1892.1981     -229097.14      0             -213443.89      41121.971      1469813.5    
    310000   1900.077      -229169.84      0             -213451.42      41100.77       1469957.1    
    310500   1903.834      -229219.59      0             -213470.08      40730.919      1470100.5    
    311000   1902.1947     -229234.67      0             -213498.72      40399.153      1470244      
    311500   1900.3019     -229251.62      0             -213531.34      40245.558      1470387.3    
    312000   1900.5634     -229283.19      0             -213560.74      39966.858      1470530.6    
    312500   1899.4981     -229289.84      0             -213576.21      40087.983      1470673.8    
    313000   1894.8666     -229235.87      0             -213560.55      39985.179      1470816.9    
    313500   1895.6832     -229181.63      0             -213499.55      40250.877      1470959.9    
    314000   1904.6154     -229189.59      0             -213433.62      40442.19       1471102.9    
    314500   1901.9502     -229139.12      0             -213405.2       40341.562      1471245.8    
    315000   1898.9311     -229110.74      0             -213401.8       40775.741      1471388.6    
    315500   1895.0084     -229091.96      0             -213415.47      40419.855      1471531.5    
    316000   1902.2884     -229180.56      0             -213443.84      40259.872      1471674.2    
    316500   1901.2974     -229212.84      0             -213484.32      39847.538      1471816.9    
    317000   1904.7032     -229289.48      0             -213532.79      39670.841      1471959.5    
    317500   1885.871      -229178.05      0             -213577.15      39808.853      1472102.1    
    318000   1894.3273     -229274.94      0             -213604.08      39583.209      1472244.5    
    318500   1885.2643     -229189.87      0             -213593.98      40041.142      1472386.8    
    319000   1892.1834     -229169.82      0             -213516.7       39854.736      1472529.1    
    319500   1899.2815     -229156.63      0             -213444.78      39959.781      1472671.3    
    320000   1897.038      -229103.63      0             -213410.34      40211.703      1472813.4    
    320500   1900.3695     -229114.37      0             -213393.53      40157.76       1472955.5    
    321000   1903.625      -229139.15      0             -213391.38      40109.434      1473097.5    
    321500   1902.9609     -229144.55      0             -213402.27      39822.163      1473239.5    
    322000   1899.5491     -229140.16      0             -213426.1       39862.103      1473381.5    
    322500   1898.4871     -229165.02      0             -213459.75      39578.519      1473523.3    
    323000   1897.5897     -229197.64      0             -213499.8       39362.095      1473665.2    
    323500   1888.2516     -229155.71      0             -213535.11      39447.996      1473806.9    
    324000   1890.0354     -229186.59      0             -213551.24      39459.551      1473948.5    
    324500   1902.4015     -229267.06      0             -213529.4       38948.977      1474090.1    
    325000   1901.8006     -229186.46      0             -213453.77      39436.441      1474231.6    
    325500   1910.5231     -229196.6       0             -213391.76      39882.536      1474372.9    
    326000   1915.7198     -229218.62      0             -213370.79      39149.19       1474514.3    
    326500   1909.4505     -229165.45      0             -213369.48      39238.113      1474655.6    
    327000   1900.1277     -229100.45      0             -213381.61      39449.309      1474796.8    
    327500   1902.2508     -229141.7       0             -213405.29      39611.764      1474938      
    328000   1899.9875     -229156.88      0             -213439.2       39016.867      1475079.1    
    328500   1892.829      -229140.84      0             -213482.38      39185.167      1475220.2    
    329000   1890.682      -229164.06      0             -213523.36      38812.968      1475361.1    
    329500   1892.1582     -229201.35      0             -213548.43      38812.194      1475502      
    330000   1894.9893     -229211.35      0             -213535.01      38726.499      1475642.8    
    330500   1894.2914     -229131.72      0             -213461.16      38911.229      1475783.5    
    331000   1898.8661     -229100.33      0             -213391.93      39303.956      1475924.1    
    331500   1898.6959     -229070.23      0             -213363.23      39167.526      1476064.6    
    332000   1903.2946     -229097.98      0             -213352.94      39422.446      1476205.1    
    332500   1901.1956     -229085.13      0             -213357.45      39324.336      1476345.6    
    333000   1908.4682     -229160.87      0             -213373.03      38956.937      1476486      
    333500   1887.8711     -229020.45      0             -213403         39368.072      1476626.4    
    334000   1889.2511     -229070.66      0             -213441.8       38942.596      1476766.7    
    334500   1893.7166     -229146.82      0             -213481.01      38587.46       1476906.9    
    335000   1892.5759     -229162.73      0             -213506.36      38650.422      1477047.1    
    335500   1887.8692     -229120.88      0             -213503.45      38704.565      1477187.1    
    336000   1892.0112     -229099.69      0             -213447.99      38886.804      1477327.1    
    336500   1894.6325     -229045.3       0             -213371.91      39228.347      1477467      
    337000   1903.5392     -229081.87      0             -213334.8       39107.053      1477606.8    
    337500   1903.8145     -229073.57      0             -213324.22      39045.376      1477746.6    
    338000   1893.656      -228994.71      0             -213329.4       38860.701      1477886.4    
    338500   1891.854      -228997.83      0             -213347.43      38830.73       1478026.1    
    339000   1894.8981     -229053.26      0             -213377.67      38678.282      1478165.7    
    339500   1897.3472     -229114.14      0             -213418.3       38656.2        1478305.3    
    340000   1886.9914     -229074.7       0             -213464.53      38411.528      1478444.8    
    340500   1884.7487     -229091.13      0             -213499.5       38623.111      1478584.2    
    341000   1884.852      -229100.65      0             -213508.17      38484.803      1478723.5    
    341500   1891.3828     -229109.74      0             -213463.23      38306.317      1478862.8    
    342000   1899.7314     -229092.17      0             -213376.61      38649.994      1479001.9    
    342500   1902.3586     -229068.22      0             -213330.92      38411.837      1479141.1    
    343000   1898.1805     -229017.51      0             -213314.78      38643.235      1479280.1    
    343500   1908.031      -229097.53      0             -213313.31      38368.693      1479419.1    
    344000   1907.3896     -229102.52      0             -213323.6       38296.078      1479558.1    
    344500   1888.3816     -228967.81      0             -213346.13      38737.61       1479697      
    345000   1897.5355     -229076.06      0             -213378.66      38095.451      1479835.8    
    345500   1897.0215     -229110.42      0             -213417.27      38175.789      1479974.6    
    346000   1897.8729     -229151.24      0             -213451.05      37962.314      1480113.3    
    346500   1895.3913     -229147.66      0             -213467.99      37820.886      1480251.9    
    347000   1887.0753     -229059.59      0             -213448.72      37892.312      1480390.5    
    347500   1900.0051     -229094.55      0             -213376.72      38046.621      1480529      
    348000   1890.3685     -228951.32      0             -213313.21      38601.803      1480667.4    
    348500   1906.7734     -229061.07      0             -213287.25      37910.791      1480805.7    
    349000   1896.8449     -228975         0             -213283.32      38162.952      1480944      
    349500   1902.628      -229033.71      0             -213294.18      37760.561      1481082.3    
    350000   1897.0619     -229010.84      0             -213317.36      38067.753      1481220.5    
    350500   1902.698      -229092.11      0             -213352         37629.436      1481358.6    
    351000   1891.3584     -229041.43      0             -213395.13      37669.236      1481496.7    
    351500   1886.2788     -229041.49      0             -213437.21      37634.553      1481634.7    
    352000   1901.638      -229197.16      0             -213465.82      37259.435      1481772.6    
    352500   1891.5815     -229109.19      0             -213461.05      37445.776      1481910.4    
    353000   1903.6404     -229141.84      0             -213393.94      37585.481      1482048.1    
    353500   1897.5562     -229015.93      0             -213318.36      37682.794      1482185.8    
    354000   1900.644      -229006.56      0             -213283.45      37596.345      1482323.4    
    354500   1902.2        -229007.24      0             -213271.25      37749.263      1482460.9    
    355000   1903.0767     -229014.82      0             -213271.58      37710.319      1482598.4    
    355500   1899.9027     -229000.45      0             -213283.47      37516.746      1482735.9    
    356000   1890.9644     -228948.13      0             -213305.09      37944.917      1482873.3    
    356500   1895.7643     -229018.78      0             -213336.03      37619.775      1483010.6    
    357000   1896.9273     -229068.31      0             -213375.94      37315.324      1483147.9    
    357500   1889.9449     -229046.73      0             -213412.13      37240.255      1483285.1    
    358000   1889.2778     -229057.58      0             -213428.49      37173.532      1483422.2    
    358500   1893.3137     -229067         0             -213404.53      36908.498      1483559.3    
    359000   1895.9474     -229014.04      0             -213329.78      37230.741      1483696.2    
    359500   1903.9237     -229020.69      0             -213270.44      37235.695      1483833.1    
    360000   1908.4798     -229035.27      0             -213247.33      37302.51       1483970      
    360500   1898.093      -228946.12      0             -213244.11      37613.761      1484106.7    
    361000   1900.9741     -228979.53      0             -213253.68      37479.822      1484243.5    
    361500   1903.0487     -229018.7       0             -213275.69      37369.2        1484380.2    
    362000   1895.4192     -228987.43      0             -213307.54      36941.644      1484516.8    
    362500   1894.0872     -229017.63      0             -213348.75      36877.188      1484653.4    
    363000   1893.2848     -229054.5       0             -213392.26      36721.894      1484789.9    
    363500   1897.3291     -229118.61      0             -213422.91      36528.259      1484926.4    
    364000   1893.3255     -229086.66      0             -213424.09      36509.691      1485062.7    
    364500   1899.4517     -229080.75      0             -213367.49      36558.053      1485199      
    365000   1899.0313     -228996.82      0             -213287.04      37101.133      1485335.2    
    365500   1899.9664     -228964         0             -213246.49      37017.554      1485471.3    
    366000   1911.1507     -229039.57      0             -213229.54      36641.255      1485607.4    
    366500   1904.5796     -228981.68      0             -213226.01      36835.193      1485743.4    
    367000   1895.1493     -228912.38      0             -213234.72      37082.037      1485879.4    
    367500   1896.3889     -228941.52      0             -213253.61      36997.013      1486015.3    
    368000   1901.769      -229016.1       0             -213283.68      36486.258      1486151.2    
    368500   1889.3326     -228953.25      0             -213323.7       36727.425      1486287      
    369000   1891.4848     -229007.49      0             -213360.14      36706.482      1486422.7    
    369500   1888.2169     -229002.01      0             -213381.7       36456.949      1486558.4    
    370000   1892.2527     -229023.96      0             -213370.26      36232.369      1486694      
    370500   1896.357      -228993.4       0             -213305.75      36571.257      1486829.6    
    371000   1904.0385     -228986.46      0             -213235.26      36482.59       1486965      
    371500   1900.569      -228926.8       0             -213204.3       36801.566      1487100.4    
    372000   1911.1697     -229004.77      0             -213194.58      36340.413      1487235.8    
    372500   1900.0784     -228918.39      0             -213199.95      36452.607      1487371.1    
    373000   1901.8285     -228951.55      0             -213218.63      36447.12       1487506.4    
    373500   1901.917      -228985.49      0             -213251.84      36424.718      1487641.6    
    374000   1897.1987     -228990.55      0             -213295.93      36254.499      1487776.8    
    374500   1897.868      -229041.36      0             -213341.21      35984.293      1487911.9    
    375000   1893.1091     -229031.99      0             -213371.21      35987.141      1488047      
    375500   1890.1327     -229006.32      0             -213370.16      36109.663      1488181.9    
    376000   1898.8246     -229015.4       0             -213307.33      35976.044      1488316.8    
    376500   1895.7859     -228907.96      0             -213225.03      36390.551      1488451.6    
    377000   1906.0963     -228955.97      0             -213187.75      36165.709      1488586.3    
    377500   1899.6069     -228888.54      0             -213174.01      36346.373      1488721      
    378000   1898.0326     -228875.88      0             -213174.36      36487.902      1488855.6    
    378500   1905.1051     -228949.22      0             -213189.2       36191.442      1488990.2    
    379000   1897.2043     -228911.87      0             -213217.21      36057.003      1489124.8    
    379500   1896.8192     -228949.04      0             -213257.57      36009.936      1489259.3    
    380000   1891.3291     -228944.24      0             -213298.18      36091.964      1489393.7    
    380500   1892.6026     -228980.34      0             -213323.74      35727.642      1489528.1    
    381000   1891.3636     -228966.77      0             -213320.43      35688.617      1489662.3    
    381500   1884.7307     -228853.76      0             -213262.29      36047.948      1489796.5    
[...]
   2908500   1905.1917     -223619.22      0             -207858.48      532.30307      1743051.2    
   2909000   1895.3663     -223584.76      0             -207905.31      328.89668      1743054.8    
   2909500   1893.8523     -223614.08      0             -207947.14     -55.20466       1743058.4    
   2910000   1897.9617     -223670.7       0             -207969.77      332.17763      1743062      
   2910500   1900.2068     -223692.39      0             -207972.89      180.96709      1743065.7    
   2911000   1896.1098     -223649.59      0             -207963.98      403.14043      1743069.3    
   2911500   1901.8931     -223682.71      0             -207949.26      205.45773      1743072.9    
   2912000   1891.8354     -223586.23      0             -207935.98     -74.486879      1743076.5    
   2912500   1899.4097     -223632.15      0             -207919.24      243.54728      1743080.1    
   2913000   1902.7799     -223644.71      0             -207903.92      256.49419      1743083.7    
   2913500   1901.0415     -223618.49      0             -207892.08      399.56405      1743087.4    
   2914000   1894.3384     -223558.98      0             -207888.03      617.78184      1743091      
   2914500   1905.8797     -223662.28      0             -207895.85      175.17256      1743094.7    
   2915000   1901.0985     -223664         0             -207937.13      443.3524       1743098.3    
   2915500   1891.9975     -223654.99      0             -208003.4      -133.46523      1743102      
   2916000   1888.323      -223659.62      0             -208038.43     -33.662433      1743105.7    
   2916500   1890.776      -223671.55      0             -208030.06      184.59217      1743109.4    
   2917000   1892.415      -223635.75      0             -207980.71     -101.33572      1743113      
   2917500   1901.2433     -223647.48      0             -207919.41     -35.302484      1743116.6    
   2918000   1894.671      -223554.8       0             -207881.09      587.00148      1743120.2    
   2918500   1903.7528     -223612.74      0             -207863.9       163.37505      1743123.8    
   2919000   1903.4558     -223608.57      0             -207862.19      82.066277      1743127.4    
   2919500   1898.047      -223571.94      0             -207870.31      458.25587      1743131.1    
   2920000   1909.3373     -223678.46      0             -207883.42     -126.55562      1743134.7    
   2920500   1892.3647     -223562.25      0             -207907.63      287.79909      1743138.4    
   2921000   1892.8079     -223613.67      0             -207955.38     -70.534344      1743142      
   2921500   1886.5798     -223614.72      0             -208007.95      239.86384      1743145.6    
   2922000   1889.1184     -223662.98      0             -208035.21      67.069083      1743149.2    
   2922500   1892.2275     -223676.87      0             -208023.38      20.037649      1743152.7    
   2923000   1891.1347     -223604.95      0             -207960.5       123.70414      1743156.3    
   2923500   1899.3408     -223594.23      0             -207881.9      -164.18304      1743159.8    
   2924000   1893.9369     -223516.42      0             -207848.79      323.69567      1743163.3    
   2924500   1912.1624     -223661.51      0             -207843.11      323.00136      1743166.8    
   2925000   1900.2902     -223573.83      0             -207853.64      297.44243      1743170.3    
   2925500   1904.4928     -223635.54      0             -207880.58      57.645071      1743173.8    
   2926000   1902.2113     -223655.56      0             -207919.48     -236.50552      1743177.3    
   2926500   1898.61       -223669.31      0             -207963.02     -94.357396      1743180.9    
   2927000   1897.5429     -223685.65      0             -207988.19     -21.648165      1743184.4    
   2927500   1892.3814     -223647.42      0             -207992.66      317.58015      1743187.9    
   2928000   1905.8386     -223727.22      0             -207961.13     -202.67291      1743191.4    
   2928500   1900.789      -223592.41      0             -207868.09      145.94451      1743194.9    
   2929000   1907.6926     -223585.4       0             -207803.97      137.72788      1743198.4    
   2929500   1905.5374     -223557.82      0             -207794.23      487.33082      1743202      
   2930000   1911.8046     -223631.15      0             -207815.71      85.309031      1743205.6    
   2930500   1912.9923     -223688.21      0             -207862.94      159.54079      1743209.2    
   2931000   1901.7492     -223643.49      0             -207911.24      197.21631      1743212.8    
   2931500   1893.661      -223607.96      0             -207942.61     -40.459399      1743216.5    
   2932000   1897.8519     -223654.47      0             -207954.45      12.822367      1743220.1    
   2932500   1895.3644     -223628.88      0             -207949.44      236.3848       1743223.8    
   2933000   1895.6809     -223610.3       0             -207928.24      201.38006      1743227.4    
   2933500   1904.7607     -223642.52      0             -207885.35      221.25691      1743231.1    
   2934000   1907.9137     -223603.61      0             -207820.36      318.90802      1743234.8    
   2934500   1906.0484     -223529.38      0             -207761.55      672.14608      1743238.5    
   2935000   1911.8403     -223554.88      0             -207739.14      388.9176       1743242.2    
   2935500   1902.4449     -223507.07      0             -207769.06      455.25429      1743246      
   2936000   1901.7795     -223604.84      0             -207872.33      205.2155       1743249.8    
   2936500   1903.7669     -223676.43      0             -207927.48      155.22959      1743253.7    
   2937000   1901.4573     -223667.7       0             -207937.85     -5.1720348      1743257.5    
   2937500   1904.445      -223691.04      0             -207936.48     -339.14021      1743261.3    
   2938000   1898.5087     -223629.92      0             -207924.47      516.20271      1743265.1    
   2938500   1897.1361     -223599.44      0             -207905.34      229.97291      1743268.9    
   2939000   1896.0232     -223564.43      0             -207879.54      528.5741       1743272.8    
   2939500   1902.6233     -223591.8       0             -207852.31      267.72412      1743276.6    
   2940000   1907.0634     -223609.59      0             -207833.37      388.79288      1743280.5    
   2940500   1905.2354     -223594.19      0             -207833.1      -14.386774      1743284.4    
   2941000   1901.677      -223588.45      0             -207856.79      360.31356      1743288.3    
   2941500   1897.8374     -223604.89      0             -207904.99      174.57752      1743292.2    
   2942000   1891.4747     -223610.55      0             -207963.29      245.15685      1743296.1    
   2942500   1896.8126     -223693.4       0             -208001.98      271.24187      1743300      
   2943000   1887.3567     -223623.63      0             -208010.44      101.6833       1743303.9    
   2943500   1891.8858     -223642.42      0             -207991.75     -43.638839      1743307.7    
   2944000   1897.5767     -223646.32      0             -207948.58      315.416        1743311.6    
   2944500   1900.1223     -223620.4       0             -207901.6       517.89144      1743315.5    
   2945000   1903.7284     -223628.67      0             -207880.04     -129.40032      1743319.4    
   2945500   1899.6399     -223593.15      0             -207878.34      257.56913      1743323.3    
   2946000   1906.1297     -223652.47      0             -207883.97      121.10332      1743327.2    
   2946500   1901.251      -223622.36      0             -207894.22      194.96788      1743331.1    
   2947000   1899.318      -223620.07      0             -207907.92      221.50328      1743335      
   2947500   1895.7893     -223609.35      0             -207926.39      322.62353      1743338.9    
   2948000   1899.3686     -223659.37      0             -207946.81     -243.83418      1743342.9    
   2948500   1905.3052     -223726.61      0             -207964.94      254.13587      1743346.8    
   2949000   1893.8423     -223642.68      0             -207975.83      59.209712      1743350.7    
   2949500   1894.8439     -223653.2       0             -207978.06      221.35138      1743354.6    
   2950000   1898.817      -223665.66      0             -207957.66     -161.26484      1743358.5    
   2950500   1898.1487     -223613.62      0             -207911.15      187.05792      1743362.4    
   2951000   1903.5877     -223607.96      0             -207860.5       241.16394      1743366.3    
   2951500   1904.4316     -223583.85      0             -207829.4       311.04715      1743370.2    
   2952000   1906.4269     -223593.98      0             -207823.02      212.68836      1743374.1    
   2952500   1903.708      -223590.9       0             -207842.44      222.36005      1743378      
   2953000   1898.5419     -223602.42      0             -207896.7       208.15053      1743382      
   2953500   1895.7674     -223650.24      0             -207967.46     -64.322545      1743386      
   2954000   1893.5003     -223662.07      0             -207998.05      82.68694       1743390      
   2954500   1890.2874     -223629         0             -207991.56      86.376279      1743393.9    
   2955000   1904.1986     -223720.92      0             -207968.4       26.395         1743397.8    
   2955500   1903.8264     -223686.96      0             -207937.52     -167.94177      1743401.8    
   2956000   1912.1618     -223727.68      0             -207909.28      149.6712       1743405.7    
   2956500   1904.1701     -223636.36      0             -207884.08      275.99773      1743409.6    
   2957000   1898.6993     -223571.55      0             -207864.52     -5.3774887      1743413.5    
   2957500   1903.1632     -223596.31      0             -207852.36      325.95138      1743417.4    
   2958000   1905.0326     -223609.21      0             -207849.79     -5.1741376      1743421.4    
   2958500   1906.8776     -223634.46      0             -207859.78      179.55289      1743425.3    
   2959000   1908.4783     -223690.91      0             -207902.99      272.53573      1743429.2    
   2959500   1892.0518     -223606.69      0             -207954.66     -40.974263      1743433.1    
   2960000   1895.8142     -223669.77      0             -207986.61      177.23284      1743436.9    
   2960500   1890.9325     -223634.87      0             -207992.1      -76.713738      1743440.8    
   2961000   1895.0591     -223644.78      0             -207967.87      313.98665      1743444.6    
   2961500   1896.6943     -223605.38      0             -207914.94      31.745159      1743448.4    
   2962000   1909.0274     -223652.29      0             -207859.83     -81.255916      1743452.2    
   2962500   1901.5815     -223563.66      0             -207832.79      196.41116      1743456      
   2963000   1901.5208     -223557.27      0             -207826.91      133.60365      1743459.8    
   2963500   1906.7474     -223611.89      0             -207838.29      282.32265      1743463.6    
   2964000   1902.1607     -223596.58      0             -207860.92      275.49511      1743467.5    
   2964500   1908.1178     -223674.45      0             -207889.51      85.5509        1743471.3    
   2965000   1891.5441     -223559.79      0             -207911.95      683.08876      1743475.2    
   2965500   1900.0071     -223639.96      0             -207922.12      417.01706      1743479      
   2966000   1895.347      -223602.82      0             -207923.52      370.66154      1743482.9    
   2966500   1890.2827     -223556.33      0             -207918.93      477.26069      1743486.7    
   2967000   1905.9685     -223676.19      0             -207909.03      10.607516      1743490.6    
   2967500   1897.7338     -223597.43      0             -207898.39      384.2902       1743494.4    
   2968000   1903.6385     -223633.97      0             -207886.09     -43.378541      1743498.3    
   2968500   1903.5802     -223621.26      0             -207873.86     -7.4743848      1743502.1    
   2969000   1898.1204     -223566.45      0             -207864.22      415.53964      1743506      
   2969500   1896.6062     -223549.65      0             -207859.93      406.13493      1743509.9    
   2970000   1907.9963     -223646.59      0             -207862.65      407.00854      1743513.7    
   2970500   1904.9539     -223638.81      0             -207880.04      124.07449      1743517.6    
   2971000   1896.0772     -223599.67      0             -207914.33      146.40181      1743521.5    
   2971500   1889.3851     -223583.5       0             -207953.52      199.45002      1743525.3    
   2972000   1891.6258     -223627.38      0             -207978.87      98.463706      1743529.2    
   2972500   1888.4921     -223607.23      0             -207984.64      135.51672      1743533      
   2973000   1896.0525     -223645.38      0             -207960.24     -11.413847      1743536.8    
   2973500   1895.6858     -223576.25      0             -207894.15      136.14647      1743540.6    
   2974000   1908.7119     -223621.5       0             -207831.64      156.32876      1743544.4    
   2974500   1904.1782     -223564.83      0             -207812.48      433.25416      1743548.2    
   2975000   1903.2862     -223568.03      0             -207823.06      542.79239      1743552      
   2975500   1905.4008     -223610.08      0             -207847.61      38.214461      1743555.9    
   2976000   1902.2257     -223613.3       0             -207877.1      -190.85861      1743559.7    
   2976500   1900.664      -223628.76      0             -207905.48     -55.778021      1743563.6    
   2977000   1894.8361     -223602.78      0             -207927.71      129.41446      1743567.4    
   2977500   1899.1264     -223647.36      0             -207936.8       49.155108      1743571.3    
   2978000   1897.0013     -223626.48      0             -207933.5      -39.989687      1743575.1    
   2978500   1898.3659     -223626.35      0             -207922.08      62.498633      1743578.9    
   2979000   1906.3128     -223678.42      0             -207908.41     -27.122157      1743582.8    
   2979500   1905.132      -223661.85      0             -207901.61     -179.09501      1743586.6    
   2980000   1898.5552     -223607.1       0             -207901.27      309.63325      1743590.4    
   2980500   1900.2557     -223620.66      0             -207900.76     -153.49491      1743594.2    
   2981000   1897.8168     -223596.66      0             -207896.93      336.96257      1743598      
   2981500   1898.4969     -223599.31      0             -207893.95      340.97512      1743601.8    
   2982000   1893.9274     -223562.88      0             -207895.33      175.06023      1743605.6    
   2982500   1907.6517     -223675.68      0             -207894.6       12.13165       1743609.4    
   2983000   1895.2218     -223566.18      0             -207887.92      342.01368      1743613.2    
   2983500   1900.2959     -223595.55      0             -207875.31     -207.2039       1743617      
   2984000   1902.2581     -223590.17      0             -207853.7       59.631299      1743620.8    
   2984500   1899.7486     -223544.91      0             -207829.2       239.71009      1743624.5    
   2985000   1903.5269     -223556.91      0             -207809.95     -122.59487      1743628.3    
   2985500   1908.85       -223593.37      0             -207802.37      46.914837      1743632.1    
   2986000   1909.2246     -223609.49      0             -207815.39      293.61935      1743635.8    
   2986500   1900.0872     -223581.98      0             -207863.47      216.92269      1743639.6    
   2987000   1890.7236     -223567.76      0             -207926.71     -8.0184569      1743643.4    
   2987500   1888.9537     -223590.96      0             -207964.55      140.15657      1743647.2    
   2988000   1896.1004     -223659.32      0             -207973.8       463.58043      1743651      
   2988500   1895.1813     -223637.91      0             -207959.99     -12.670748      1743654.8    
   2989000   1898.165      -223627.76      0             -207925.15      22.971743      1743658.5    
   2989500   1899.3579     -223589.96      0             -207877.49     -231.57992      1743662.2    
   2990000   1900.3344     -223558.08      0             -207837.53     -70.566877      1743665.9    
   2990500   1902.9391     -223567.4       0             -207825.3       20.872509      1743669.6    
   2991000   1898.5089     -223537.08      0             -207831.63      226.49072      1743673.3    
   2991500   1896.975      -223538.86      0             -207846.1       562.89875      1743677      
   2992000   1897.8831     -223567.49      0             -207867.21      471.14427      1743680.7    
   2992500   1903.6223     -223641.47      0             -207893.72      326.94685      1743684.4    
   2993000   1896.2459     -223609.36      0             -207922.63     -60.567495      1743688.1    
   2993500   1892.6653     -223607.12      0             -207950.01      264.08764      1743691.8    
   2994000   1895.3367     -223653.25      0             -207974.03     -1.2795983      1743695.5    
   2994500   1888.2833     -223607.11      0             -207986.24      142.86222      1743699.2    
   2995000   1894.9064     -223639.15      0             -207963.5      -98.691823      1743702.9    
   2995500   1900.3085     -223615.51      0             -207895.17      120.55191      1743706.6    
   2996000   1903.4256     -223579.74      0             -207833.62      5.1303602      1743710.2    
   2996500   1902.8695     -223546.57      0             -207805.05      321.2186       1743713.8    
   2997000   1904.8638     -223561.37      0             -207803.34      273.41527      1743717.5    
   2997500   1901.1966     -223554.27      0             -207826.59      61.065962      1743721.2    
   2998000   1907.0028     -223651.82      0             -207876.1       68.593144      1743724.9    
   2998500   1895.3738     -223605.62      0             -207926.1       71.632248      1743728.6    
   2999000   1898.0438     -223651.57      0             -207949.96     -281.8261       1743732.3    
   2999500   1890.0908     -223582.77      0             -207946.95      16.510252      1743735.9    
   3000000   1901.294      -223656.12      0             -207927.62      46.35356       1743739.5    
Loop time of 331518 on 32 procs for 3000000 steps with 64000 atoms

Performance: 0.782 ns/day, 30.696 hours/ns, 9.049 timesteps/s, 579.155 katom-step/s
30.4% CPU use with 32 MPI tasks x no OpenMP threads

MPI task timing breakdown:
Section |  min time  |  avg time  |  max time  |%varavg| %total
---------------------------------------------------------------
Pair    | 25767      | 94712      | 1.6391e+05 |19932.1 | 28.57
Neigh   | 797.12     | 4258.4     | 7881.3     |4911.1 |  1.28
Comm    | 1.445e+05  | 2.1581e+05 | 2.8994e+05 |13798.7 | 65.10
Output  | 538.14     | 544.2      | 545.35     |   6.9 |  0.16
Modify  | 11995      | 15662      | 19106      |1404.0 |  4.72
Other   |            | 529.6      |            |       |  0.16

Nlocal:           2000 ave        2069 max        1928 min
Histogram: 1 0 1 6 11 5 2 2 3 1
Nghost:        5837.56 ave        5909 max        5763 min
Histogram: 1 1 2 4 7 6 7 2 1 1
Neighs:         204741 ave      215836 max      196762 min
Histogram: 1 2 8 5 5 7 2 1 0 1

Total # of neighbors = 6551707
Ave neighs/atom = 102.37042
Neighbor list builds = 125569
Dangerous builds = 0
Total wall time: 92:05:23
