LAMMPS (23 Jun 2022 - Update 4)
# 3d vashishta

units		metal
atom_style	atomic

boundary        p p p


lattice		custom 1              a1 5.5392  0. 0.              a2 0.0 5.5392  0.0            a3 0.0 0.0 5.5392             basis 0.   0.   0.            basis 0.5  0.5  0.            basis 0.5  0.   0.5            basis 0.   0.5  0.5            basis 0.5  0.   0.             basis 0.   0.5  0.             basis 0.   0.   0.5             basis 0.5  0.5  0.5
Lattice spacing in x,y,z = 5.5392 5.5392 5.5392


region		caixa block 0 10 0 10 0 10
create_box	2 caixa
Created orthogonal box = (0 0 0) to (55.392 55.392 55.392)
  1 by 2 by 5 MPI processor grid
create_atoms	1 region caixa basis 1 1 basis 2 1 basis 3 1 basis 4 1             	  basis 5 2 basis 6 2 basis 7 2 basis 8 2
Created 8000 atoms
  using lattice units in orthogonal box = (0 0 0) to (55.392 55.392 55.392)
  create_atoms CPU = 0.001 seconds

mass		1 137.33
mass		2 15.9994

#velocity	all create 2100. 473204 dist gaussian
velocity        all create 1300. 473204 dist gaussian

group		Ba type 1
4000 atoms in group Ba
group		O type 2
4000 atoms in group O

pair_style	table linear 50000
pair_coeff	1 1 Pot_BaO Vash_11
WARNING: 23463 of 50000 force values in table Vash_11 are inconsistent with -dE/dr.
WARNING:  Should only be flagged at inflection points (../pair_table.cpp:463)
WARNING: 43814 of 50000 distance values in table 1e-06 with relative error
WARNING:  over Vash_11 to re-computed values (../pair_table.cpp:471)
pair_coeff	1 2 Pot_BaO Vash_12
WARNING: 23576 of 50000 force values in table Vash_12 are inconsistent with -dE/dr.
WARNING:  Should only be flagged at inflection points (../pair_table.cpp:463)
WARNING: 43814 of 50000 distance values in table 1e-06 with relative error
WARNING:  over Vash_12 to re-computed values (../pair_table.cpp:471)
pair_coeff	2 2 Pot_BaO Vash_22
WARNING: 23794 of 50000 force values in table Vash_22 are inconsistent with -dE/dr.
WARNING:  Should only be flagged at inflection points (../pair_table.cpp:463)
WARNING: 43814 of 50000 distance values in table 1e-06 with relative error
WARNING:  over Vash_22 to re-computed values (../pair_table.cpp:471)

timestep	0.001   #1.0 fs

thermo		500         # intervalo para mostrar output instantaneos.

neighbor	2.0 bin
neigh_modify	every 8 delay 0 check yes

restart		1000 BaO-nvt.T2100

#fix		ensemble all nve
#fix		ensemble all nvt temp 300 300 0.1 iso 0.0 0.0 0.5 drag 2.0
#fix    ensemble all nvt temp 2100 2100 0.1

fix    ensemble all nvt temp 1300 1300 0.05


run		2000000
Generated 0 of 1 mixed pair_coeff terms from geometric mixing rule
Neighbor list info ...
  update every 8 steps, delay 0 steps, check yes
  max neighbors/atom: 2000, page size: 100000
  master list distance cutoff = 11
  ghost atom cutoff = 11
  binsize = 5.5, bins = 11 11 11
  1 neighbor lists, perpetual/occasional/extra = 1 0 0
  (1) pair table, perpetual
      attributes: half, newton on
      pair build: half/bin/atomonly/newton
      stencil: half/bin/3d
      bin: standard
Per MPI rank memory allocation (min/avg/max) = 3.309 | 3.535 | 3.696 Mbytes
   Step          Temp          E_pair         E_mol          TotEng         Press     
         0   1300          -30477.63       0             -29133.492      8134.8444    
       500   1287.866      -29200.602      0             -27869.01       56727.719    
      1000   1304.3902     -29276.458      0             -27927.781      54754.484    
      1500   1298.2786     -29255.984      0             -27913.626      55248.87     
      2000   1290.9119     -29243.856      0             -27909.116      55566.385    
      2500   1296.0613     -29232.317      0             -27892.252      55979.184    
      3000   1322.2633     -29267.091      0             -27899.934      54786.868    
      3500   1296.1085     -29266.976      0             -27926.862      54419.587    
      4000   1298.4067     -29233.094      0             -27890.604      55994.837    
      4500   1316.0061     -29266.405      0             -27905.718      54747.752    
      5000   1302.2819     -29243.156      0             -27896.659      55525.448    
      5500   1318.2099     -29235.927      0             -27872.961      56432.174    
      6000   1306.1175     -29227.589      0             -27877.126      56215.204    
      6500   1290.5741     -29244.882      0             -27910.49       55327.792    
      7000   1295.1291     -29240.221      0             -27901.12       55805.143    
      7500   1290.4825     -29251.433      0             -27917.136      54814.443    
      8000   1304.9476     -29232.739      0             -27883.486      56478.481    
      8500   1307.8413     -29252.431      0             -27900.186      55234.674    
      9000   1297.7734     -29232.772      0             -27890.936      55442.723    
      9500   1296.2379     -29280.729      0             -27940.481      53811.114    
     10000   1301.9853     -29243.092      0             -27896.902      55690.442    
     10500   1295.7633     -29242.438      0             -27902.681      55790.503    
     11000   1300.5507     -29252.125      0             -27907.418      55189.783    
     11500   1318.512      -29250.36       0             -27887.082      55811.711    
     12000   1286.0717     -29253.132      0             -27923.396      55230.498    
     12500   1312.1819     -29241.53       0             -27884.797      55978.693    
     13000   1315.8004     -29256.208      0             -27895.734      55469.775    
     13500   1307.0812     -29257.188      0             -27905.729      55291.063    
     14000   1309.3233     -29239.438      0             -27885.661      55727.363    
     14500   1295.5901     -29238.367      0             -27898.79       55882.109    
     15000   1289.3814     -29251.515      0             -27918.357      55010.522    
     15500   1323.5316     -29250.774      0             -27882.306      55615.188    
     16000   1295.4177     -29264.809      0             -27925.409      54994.97     
     16500   1321.8627     -29249.378      0             -27882.636      55234.462    
     17000   1315.0985     -29247.706      0             -27887.957      55375.203    
     17500   1309.2851     -29234.944      0             -27881.206      55989.505    
     18000   1306.5249     -29255.732      0             -27904.848      55209.257    
     18500   1299.332      -29246.269      0             -27902.822      55863.133    
     19000   1311.8114     -29244.908      0             -27888.558      55824.903    
     19500   1292.0458     -29244.836      0             -27908.923      55830.569    
     20000   1298.4998     -29244.981      0             -27902.395      55431.525    
     20500   1306.1797     -29246.774      0             -27896.247      56071.198    
     21000   1326.7909     -29258.55       0             -27886.712      55311.04     
     21500   1298.4691     -29258.668      0             -27916.113      55122.578    
     22000   1282.899      -29244.772      0             -27918.316      55760.515    
     22500   1307.3339     -29239.427      0             -27887.707      55493.724    
     23000   1307.9401     -29247.361      0             -27895.014      55486.15     
     23500   1309.119      -29256.188      0             -27902.622      55233.217    
     24000   1318.149      -29234.649      0             -27871.747      56309.077    
     24500   1295.4823     -29255.627      0             -27916.161      55449.636    
     25000   1289.5212     -29219.847      0             -27886.544      56266.027    
     25500   1312.228      -29233.682      0             -27876.902      55921.286    
     26000   1293.9093     -29259.028      0             -27921.188      55224.95     
     26500   1318.5207     -29259.672      0             -27896.385      55171.115    
     27000   1296.7619     -29246.598      0             -27905.809      55319.073    
     27500   1290.3902     -29241.955      0             -27907.754      55686.366    
     28000   1314.9765     -29232.926      0             -27873.303      56312.234    
     28500   1295.2756     -29274.723      0             -27935.47       54108.837    
     29000   1275.8387     -29238.884      0             -27919.728      55589.315    
     29500   1294.3225     -29242.783      0             -27904.516      55649.254    
     30000   1296.5481     -29236.302      0             -27895.733      56006.457    
     30500   1294.9224     -29251.303      0             -27912.415      55193.284    
     31000   1289.9258     -29245.08       0             -27911.359      55430.402    
     31500   1309.2077     -29235.162      0             -27881.505      56218.044    
     32000   1288.9435     -29211.416      0             -27878.711      56788.626    
     32500   1306.6201     -29245.476      0             -27894.493      55542.853    
     33000   1290.7983     -29244.324      0             -27909.7        55645.965    
     33500   1321.3699     -29241.336      0             -27875.103      55756.079    
     34000   1300.792      -29237.224      0             -27892.267      55907.35     
     34500   1278.0157     -29248.904      0             -27927.497      55488.436    
     35000   1277.9129     -29248.125      0             -27926.824      55393.44     
     35500   1303.4858     -29237.295      0             -27889.553      55494.065    
     36000   1293.3904     -29259.578      0             -27922.275      54862.159    
     36500   1293.3413     -29239.422      0             -27902.169      55645.256    
     37000   1306.4554     -29263.885      0             -27913.073      55382.629    
     37500   1307.9261     -29232.76       0             -27880.427      55859.335    
     38000   1296.3206     -29246.139      0             -27905.805      55855.812    
     38500   1308.5479     -29223.226      0             -27870.25       56306.187    
     39000   1313.3201     -29249.869      0             -27891.959      55603.389    
     39500   1273.2989     -29238.254      0             -27921.724      55639.918    
     40000   1304.6432     -29240.364      0             -27891.426      56101.871    
     40500   1300.9863     -29260.47       0             -27915.312      55190.038    
     41000   1299.6984     -29251.776      0             -27907.95       55548.953    
     41500   1295.1282     -29248.933      0             -27909.833      55267.013    
     42000   1297.8184     -29244.911      0             -27903.03       55899.075    
     42500   1312.8521     -29256.192      0             -27898.766      55351.904    
     43000   1285.8339     -29260.74       0             -27931.25       54794.992    
     43500   1297.2197     -29236.274      0             -27895.012      56108.874    
     44000   1298.8881     -29250.004      0             -27907.016      55992.135    
     44500   1307.6824     -29244.935      0             -27892.854      55693.1      
     45000   1302.1963     -29229.299      0             -27882.89       56235.621    
     45500   1307.797      -29265.354      0             -27913.155      54913.626    
     46000   1294.208      -29225.688      0             -27887.539      56453.672    
     46500   1299.6789     -29249.115      0             -27905.309      55449.496    
     47000   1316.211      -29260.673      0             -27899.774      54722.973    
     47500   1304.2651     -29246.378      0             -27897.83       55745.479    
     48000   1302.2748     -29237.537      0             -27891.047      55483.524    
     48500   1300.2064     -29262.417      0             -27918.066      54914.37     
     49000   1292.1782     -29240.691      0             -27904.641      56153.431    
     49500   1308.6331     -29231.672      0             -27878.609      56163.026    
     50000   1325.3881     -29237.152      0             -27866.765      55768.941    
     50500   1305.8457     -29264.388      0             -27914.207      54552.402    
     51000   1305.5024     -29231.007      0             -27881.181      56540.435    
     51500   1287.1121     -29259.27       0             -27928.458      55220.942    
     52000   1287.9685     -29245.259      0             -27913.561      55163.76     
     52500   1301.3536     -29250.391      0             -27904.854      55385.346    
     53000   1298.028      -29241.961      0             -27899.863      55398.127    
     53500   1308.0683     -29261.124      0             -27908.645      55175.913    
     54000   1302.4067     -29239.857      0             -27893.232      55653.088    
     54500   1288.8877     -29247.384      0             -27914.736      55266.723    
     55000   1284.0774     -29255.965      0             -27928.291      55062.984    
     55500   1282.1639     -29239.094      0             -27913.399      55697.333    
     56000   1300.9033     -29238.523      0             -27893.451      55835.887    
     56500   1302.0916     -29261.444      0             -27915.144      54744.603    
     57000   1301.735      -29239.241      0             -27893.309      56099.088    
     57500   1302.3758     -29247.643      0             -27901.049      55967.541    
     58000   1290.4843     -29256.284      0             -27921.985      55226.065    
     58500   1313.3294     -29248.565      0             -27890.646      55356.119    
     59000   1303.7628     -29252.113      0             -27904.085      55967.953    
     59500   1300.7706     -29252.199      0             -27907.265      54956.919    
     60000   1311.0213     -29246.707      0             -27891.174      55923.525    
     60500   1305.8008     -29242.421      0             -27892.286      55612.457    
     61000   1306.0213     -29236.064      0             -27885.701      56048.525    
     61500   1302.6565     -29235.211      0             -27888.327      55782.763    
     62000   1312.7715     -29246.521      0             -27889.178      55502.817    
     62500   1299.727      -29264.733      0             -27920.878      54324.294    
     63000   1307.5342     -29240.295      0             -27888.368      55708.124    
     63500   1283.8354     -29241.123      0             -27913.699      55560.798    
     64000   1304.7865     -29238.953      0             -27889.866      55766.487    
     64500   1281.8931     -29254.463      0             -27929.048      55035.537    
     65000   1323.5694     -29248.217      0             -27879.71       55550.38     
     65500   1294.7104     -29243.354      0             -27904.686      55841.59     
     66000   1311.7161     -29256.683      0             -27900.432      55299.138    
     66500   1287.0921     -29241.891      0             -27911.1        55879.966    
     67000   1312.8096     -29260.068      0             -27902.686      55209.068    
     67500   1294.6482     -29250.077      0             -27911.473      55524.989    
     68000   1325.6023     -29264.056      0             -27893.447      55308.66     
     68500   1309.5163     -29242.209      0             -27888.232      55734.266    
     69000   1290.2376     -29266.219      0             -27932.175      55021.311    
     69500   1308.5998     -29238.95       0             -27885.921      55697.75     
     70000   1298.6415     -29229.207      0             -27886.474      55750.741    
     70500   1283.9003     -29247.75       0             -27920.259      55661.226    
     71000   1296.1061     -29236.662      0             -27896.55       56148.051    
     71500   1308.6232     -29235.041      0             -27881.988      56169.3      
     72000   1305.9136     -29258.576      0             -27908.324      55258.118    
     72500   1311.0118     -29269.97       0             -27914.447      54747.011    
     73000   1290.3961     -29251.655      0             -27917.447      55161.278    
     73500   1292.767      -29249.136      0             -27912.477      55159.959    
     74000   1313.3008     -29219.729      0             -27861.839      56057.95     
     74500   1302.6373     -29242.336      0             -27895.472      55873.463    
     75000   1277.7913     -29227.657      0             -27906.483      56522.088    
     75500   1312.5249     -29233.456      0             -27876.369      56043.601    
     76000   1287.4006     -29242.583      0             -27911.472      55647.448    
     76500   1289.7084     -29233.906      0             -27900.409      55777.06     
     77000   1302.5286     -29260.143      0             -27913.391      54987.518    
     77500   1308.2841     -29252.907      0             -27900.204      55099.287    
     78000   1290.78       -29252.053      0             -27917.449      55556.907    
     78500   1280.1419     -29229.27       0             -27905.665      56079.826    
     79000   1318.0464     -29255.518      0             -27892.721      55248.688    
     79500   1300.9954     -29248.712      0             -27903.545      55678.495    
     80000   1304.4565     -29231.498      0             -27882.753      56265.331    
     80500   1308.92       -29252.533      0             -27899.172      55114.532    
     81000   1275.6642     -29234.353      0             -27915.377      55972.491    
     81500   1286.9623     -29236.868      0             -27906.211      55757.475    
     82000   1289.314      -29245.821      0             -27912.732      55358.499    
     82500   1293.6586     -29255.609      0             -27918.028      55336.524    
     83000   1314.1277     -29253.167      0             -27894.422      55171.266    
     83500   1300.4725     -29250.689      0             -27906.063      55276.603    
     84000   1325.8443     -29245.463      0             -27874.603      55748.71     
     84500   1313.1678     -29239.572      0             -27881.82       56271.075    
     85000   1282.4831     -29256.44       0             -27930.415      55024.629    
     85500   1320.1985     -29241.274      0             -27876.252      55315.606    
     86000   1300.5247     -29254.029      0             -27909.349      55550.235    
     86500   1300.1538     -29248.854      0             -27904.557      55728.402    
     87000   1308.1611     -29254.79       0             -27902.215      55165.87     
     87500   1292.7969     -29246.253      0             -27909.563      55292.808    
     88000   1296.7625     -29238.639      0             -27897.849      55640.512    
     88500   1296.0692     -29241.05       0             -27900.977      55474.805    
     89000   1285.5058     -29257.876      0             -27928.725      55020.568    
     89500   1309.0929     -29250.817      0             -27897.278      55681.788    
     90000   1282.7347     -29242.639      0             -27916.353      55980.536    
     90500   1283.2747     -29234.034      0             -27907.19       55847.878    
     91000   1297.5292     -29261.235      0             -27919.652      55016.693    
     91500   1304.7137     -29242.693      0             -27893.681      55957.078    
     92000   1306.9111     -29250.914      0             -27899.631      55450.142    
     92500   1301.4495     -29250.637      0             -27905.001      55298.154    
     93000   1298.0531     -29240.218      0             -27898.094      55838.056    
     93500   1318.4811     -29246.53       0             -27883.284      55276.087    
     94000   1297.2998     -29254.875      0             -27913.53       55455.271    
     94500   1308.8083     -29244.034      0             -27890.789      55834.137    
     95000   1280.5791     -29237.185      0             -27913.128      55984.707    
     95500   1311.7063     -29248.98       0             -27892.739      55611.064    
     96000   1293.7724     -29251.911      0             -27914.212      55579.311    
     96500   1305.3328     -29245.522      0             -27895.871      55389.971    
     97000   1309.2979     -29261.104      0             -27907.353      55037.729    
     97500   1314.9698     -29237.684      0             -27878.068      55867.966    
     98000   1303.9208     -29242.783      0             -27894.591      56078.873    
     98500   1297.8907     -29237.315      0             -27895.358      55849.456    
     99000   1301.5761     -29238.1        0             -27892.333      55357.935    
     99500   1308.4363     -29234.73       0             -27881.87       56064.616    
    100000   1297.0881     -29239.649      0             -27898.522      55464.969    
    100500   1270.8947     -29231.185      0             -27917.141      55378.741    
    101000   1305.5594     -29238.073      0             -27888.187      55726.577    
    101500   1297.2789     -29240.688      0             -27899.364      56426.519    
    102000   1313.5152     -29267.501      0             -27909.389      54972.973    
    102500   1314.4355     -29247.67       0             -27888.607      55668.053    
    103000   1319.9836     -29246.995      0             -27882.195      55438.376    
    103500   1297.2732     -29258.7        0             -27917.382      55283.186    
    104000   1305.4809     -29218.207      0             -27868.403      56712.347    
    104500   1305.1233     -29234.616      0             -27885.182      56432.176    
    105000   1297.3081     -29236.509      0             -27895.154      55900.474    
    105500   1288.2815     -29246.082      0             -27914.061      55439.21     
    106000   1291.685      -29232.162      0             -27896.622      55910.766    
    106500   1314.3641     -29243.365      0             -27884.376      55553.581    
    107000   1275.9961     -29238.16       0             -27918.842      55997.434    
    107500   1288.8122     -29226.297      0             -27893.727      56491.666    
    108000   1302.0525     -29249.936      0             -27903.676      55630.474    
    108500   1289.4826     -29246.408      0             -27913.145      55671.123    
    109000   1290.3757     -29261.529      0             -27927.343      55231.435    
    109500   1291.2918     -29237.396      0             -27902.263      56142.487    
    110000   1303.931      -29261.02       0             -27912.818      54814.978    
    110500   1309.1817     -29254.998      0             -27901.367      55392.933    
    111000   1298.0617     -29229.563      0             -27887.429      56076.833    
    111500   1285.0198     -29246.886      0             -27918.238      55410.036    
    112000   1293.0725     -29233.548      0             -27896.573      56347.606    
    112500   1289.2022     -29240.915      0             -27907.942      55576.732    
    113000   1306.7972     -29239.837      0             -27888.672      55610.246    
    113500   1303.9083     -29243.061      0             -27894.883      55361.217    
    114000   1281.745      -29260.297      0             -27935.034      54952.394    
    114500   1327.2962     -29251.949      0             -27879.588      55382.489    
    115000   1309.3458     -29256.336      0             -27902.536      55494.115    
    115500   1298.8591     -29240.5        0             -27897.543      55670.921    
    116000   1329.1388     -29268.387      0             -27894.122      55457.226    
    116500   1280.1596     -29249.271      0             -27925.648      55202.196    
    117000   1296.6638     -29238.434      0             -27897.746      55788.317    
    117500   1306.0225     -29240.391      0             -27890.027      55973.289    
    118000   1302.6685     -29239.7        0             -27892.803      56099.451    
    118500   1304.7987     -29261.695      0             -27912.595      54609.707    
    119000   1294.8221     -29240.14       0             -27901.357      55676.02     
    119500   1301.3933     -29251.324      0             -27905.746      55315.206    
    120000   1305.9544     -29219.155      0             -27868.861      56601.076    
    120500   1307.4604     -29235.459      0             -27883.607      56695.84     
    121000   1286.8802     -29240.2        0             -27909.628      55543.278    
    121500   1300.1557     -29263.386      0             -27919.088      55197.783    
    122000   1281.7746     -29243.839      0             -27918.545      55913.806    
    122500   1285.4236     -29238.189      0             -27909.123      55449.152    
    123000   1309.4977     -29241.758      0             -27887.8        55171.194    
    123500   1320.2489     -29249.401      0             -27884.327      55096.951    
    124000   1288.4883     -29237.488      0             -27905.253      55594.151    
    124500   1292.7597     -29242.711      0             -27906.06       55565.719    
    125000   1306.9955     -29240.021      0             -27888.651      55881.931    
    125500   1280.9085     -29233.304      0             -27908.906      55789.556    
    126000   1309.7581     -29249.625      0             -27895.399      55572.829    
    126500   1278.8831     -29255.533      0             -27933.229      55628.985    
    127000   1286.5393     -29223.829      0             -27893.609      55651.948    
    127500   1293.4156     -29276.897      0             -27939.567      54474.121    
    128000   1307.8447     -29240.138      0             -27887.889      55997.248    
    128500   1292.0893     -29265.938      0             -27929.98       54796.14     
    129000   1312.8844     -29247.023      0             -27889.564      55454.258    
    129500   1309.7461     -29232.092      0             -27877.878      56411.032    
    130000   1299.6766     -29252.93       0             -27909.126      55020.935    
    130500   1311.8269     -29261.32       0             -27904.954      55209.029    
    131000   1316.4637     -29234.445      0             -27873.285      55981.82     
    131500   1304.8064     -29244.105      0             -27894.998      56044.151    
    132000   1282.213      -29257          0             -27931.253      55296.953    
    132500   1301.0018     -29226.709      0             -27881.535      56414.766    
    133000   1308.0284     -29272.756      0             -27920.318      54754.904    
    133500   1310.9098     -29254.629      0             -27899.211      54889.18     
    134000   1327.6099     -29257.664      0             -27884.979      55125.108    
    134500   1286.9716     -29241.802      0             -27911.135      55948.27     
    135000   1331.0027     -29241.659      0             -27865.466      56089.299    
    135500   1302.2108     -29230.145      0             -27883.721      56271.674    
    136000   1286.7495     -29270.932      0             -27940.495      54439.911    
    136500   1302.9397     -29246.16       0             -27898.983      56168.333    
    137000   1296.0875     -29251.858      0             -27911.766      55162.33     
    137500   1302.193      -29258.832      0             -27912.427      54786.801    
    138000   1321.1294     -29264.352      0             -27898.368      55137.145    
    138500   1298.8486     -29224.916      0             -27881.969      56166.428    
    139000   1291.2783     -29246.967      0             -27911.847      55783.135    
    139500   1297.7517     -29248.025      0             -27906.212      55495.409    
    140000   1271.103      -29257.396      0             -27943.136      54904.939    
    140500   1291.7218     -29229.496      0             -27893.918      56221.317    
    141000   1319.4289     -29237.007      0             -27872.781      55971.959    
    141500   1292.158      -29257.65       0             -27921.621      55116.754    
    142000   1314.2385     -29230.806      0             -27871.947      55807.974    
    142500   1306.5286     -29250.049      0             -27899.161      55370.436    
    143000   1303.9656     -29244.389      0             -27896.151      55351.34     
    143500   1286.8956     -29253.129      0             -27922.541      55394.622    
    144000   1301.5992     -29239.786      0             -27893.995      56112.926    
    144500   1317.8285     -29254.262      0             -27891.691      55514.724    
    145000   1279.5392     -29251.089      0             -27928.107      54861.363    
    145500   1297.1879     -29253.958      0             -27912.728      55389.289    
    146000   1291.2774     -29247.507      0             -27912.388      55402.222    
    146500   1282.765      -29233.149      0             -27906.832      56114.249    
    147000   1327.8701     -29251.317      0             -27878.364      55647.944    
    147500   1291.8271     -29255.662      0             -27919.975      55418.766    
    148000   1292.7428     -29243.59       0             -27906.957      55627.185    
    148500   1292.9374     -29236.4        0             -27899.565      56044.146    
    149000   1317.3571     -29245.784      0             -27883.7        55364.425    
    149500   1291.7973     -29237.048      0             -27901.391      55663.236    
    150000   1293.7542     -29251.894      0             -27914.214      55170.171    
    150500   1286.1531     -29234.77       0             -27904.95       55560.245    
    151000   1306.0927     -29249.46       0             -27899.023      55525.034    
    151500   1313.7352     -29228.574      0             -27870.235      56031.173    
    152000   1290.4076     -29257.36       0             -27923.141      55185.929    
    152500   1293.498      -29243.367      0             -27905.952      56060.366    
    153000   1299.7567     -29244.66       0             -27900.774      55569.491    
    153500   1293.0688     -29253.937      0             -27916.966      55407.814    
    154000   1315.99       -29234.257      0             -27873.587      56051.588    
    154500   1310.3954     -29227.379      0             -27872.493      56306.558    
    155000   1301.5444     -29254.341      0             -27908.607      54803.711    
    155500   1305.4018     -29238.803      0             -27889.08       56062.228    
    156000   1289.3168     -29240.803      0             -27907.712      55381.865    
    156500   1303.6625     -29241.19       0             -27893.266      55514.56     
    157000   1313.6265     -29263.047      0             -27904.82       54650.334    
    157500   1306.9687     -29254.139      0             -27902.796      55312.559    
    158000   1301.8253     -29266.735      0             -27920.711      54916.87     
    158500   1306.1981     -29244.245      0             -27893.699      56052.484    
    159000   1315.6654     -29233.149      0             -27872.814      56451.123    
    159500   1323.3519     -29267.083      0             -27898.801      55043.173    
    160000   1274.0707     -29256.711      0             -27939.383      55143.797    
    160500   1296.7894     -29218.733      0             -27877.915      56530.821    
    161000   1278.9583     -29247.686      0             -27925.304      55340.106    
    161500   1319.6027     -29266.509      0             -27902.104      55197.403    
    162000   1310.2316     -29252.111      0             -27897.395      54800.447    
    162500   1277.6292     -29259.837      0             -27938.83       55341.732    
    163000   1299.9551     -29254.344      0             -27910.253      55357.567    
    163500   1304.7339     -29253.543      0             -27904.511      55664.838    
    164000   1301.1955     -29249.556      0             -27904.182      55943.556    
    164500   1290.9252     -29249.355      0             -27914.601      55349.054    
    165000   1287.9777     -29241.285      0             -27909.578      55286.444    
    165500   1309.9709     -29236.986      0             -27882.539      55969.859    
    166000   1303.8346     -29234.169      0             -27886.067      55920.177    
    166500   1298.6577     -29249.236      0             -27906.486      55396.949    
    167000   1307.1996     -29232.767      0             -27881.186      56018.543    
    167500   1277.2713     -29236.291      0             -27915.654      55736.89     
    168000   1296.7835     -29228.891      0             -27888.079      56356.266    
    168500   1299.184      -29274.338      0             -27931.045      54551.225    
    169000   1305.0949     -29263.107      0             -27913.702      55179.694    
    169500   1303.4847     -29238.276      0             -27890.536      55566.421    
    170000   1303.949      -29251.577      0             -27903.357      55225.414    
    170500   1280.5946     -29233.94       0             -27909.867      55526.247    
    171000   1323.299      -29238.49       0             -27870.262      55999.709    
    171500   1303.4088     -29243.291      0             -27895.629      55326.082    
    172000   1277.0811     -29271.094      0             -27950.653      54447.122    
    172500   1299.2063     -29230.293      0             -27886.976      56249.325    
    173000   1292.1206     -29247.877      0             -27911.887      55554.928    
    173500   1299.8521     -29246.288      0             -27902.303      55059.523    
    174000   1304.1133     -29248.637      0             -27900.246      55753.86     
    174500   1309.304      -29248.07       0             -27894.312      55823.701    
    175000   1299.2413     -29244.865      0             -27901.512      56011.927    
    175500   1303.0291     -29251.625      0             -27904.355      55586.244    
    176000   1307.7202     -29240.507      0             -27888.387      55544.105    
    176500   1290.9998     -29231.457      0             -27896.625      55965.121    
    177000   1310.8921     -29228.001      0             -27872.601      56184.233    
    177500   1319.7832     -29254.467      0             -27889.875      55464.721    
    178000   1316.0001     -29230.05       0             -27869.369      56177.131    
    178500   1300.3848     -29258.54       0             -27914.004      55048.864    
    179000   1285.3066     -29223.657      0             -27894.712      56841.884    
    179500   1286.4104     -29251.588      0             -27921.501      54939.485    
    180000   1313.5826     -29242.333      0             -27884.152      55643.953    
    180500   1321.1056     -29255.442      0             -27889.482      55345.21     
    181000   1296.4305     -29225.39       0             -27884.943      56272.058    
    181500   1290.3036     -29244.66       0             -27910.548      55813.606    
    182000   1322.3665     -29244.501      0             -27877.238      55616.198    
    182500   1304.5823     -29248.065      0             -27899.19       55824.752    
    183000   1317.2034     -29252.491      0             -27890.566      55160.017    
    183500   1298.3479     -29252.326      0             -27909.897      55037.354    
    184000   1307.5383     -29243.183      0             -27891.252      55529.914    
    184500   1338.2096     -29233.723      0             -27850.079      55820.553    
    185000   1328.0557     -29236.798      0             -27863.653      55967.656    
    185500   1308.3499     -29256.851      0             -27904.08       55189.926    
    186000   1294.4135     -29245.075      0             -27906.713      55746.228    
    186500   1302.9992     -29254.842      0             -27907.603      55553.573    
    187000   1283.8554     -29257.846      0             -27930.401      54880.43     
    187500   1321.8684     -29241.086      0             -27874.338      55400.713    
    188000   1314.1658     -29255.405      0             -27896.621      55028.53     
    188500   1295.863      -29249.459      0             -27909.599      55075.799    
    189000   1306.7154     -29231.936      0             -27880.855      56353.649    
    189500   1314.7363     -29266.63       0             -27907.256      55406.969    
    190000   1313.175      -29242.239      0             -27884.479      55806.302    
    190500   1282.8482     -29259.262      0             -27932.859      54818.898    
    191000   1306.6773     -29257.659      0             -27906.618      55059.27     
    191500   1288.0866     -29262.486      0             -27930.667      54718.877    
    192000   1305.1021     -29263.668      0             -27914.256      54731.008    
    192500   1316.9262     -29247.255      0             -27885.616      55526.28     
    193000   1300.7742     -29248.912      0             -27903.974      56275        
    193500   1293.529      -29239.775      0             -27902.328      55786.785    
    194000   1298.7507     -29255.803      0             -27912.957      55172.726    
    194500   1295.3226     -29240.885      0             -27901.584      55421.563    
    195000   1315.0082     -29238.878      0             -27879.223      55805.656    
    195500   1289.3635     -29233.727      0             -27900.587      56012.606    
    196000   1292.644      -29243.792      0             -27907.26       55086.846    
    196500   1291.8022     -29253.307      0             -27917.646      54702.134    
    197000   1298.5554     -29249.692      0             -27907.049      55319.636    
    197500   1281.9692     -29245.305      0             -27919.81       55524.891    
    198000   1276.8906     -29244.961      0             -27924.718      55966.624    
    198500   1299.4401     -29247.624      0             -27904.065      55414.928    
    199000   1312.0788     -29257.132      0             -27900.505      55037.594    
    199500   1311.8013     -29252.214      0             -27895.875      55311.593    
    200000   1313.893      -29244.302      0             -27885.8        55753.625    
    200500   1295.2274     -29239.652      0             -27900.45       55920.794    
    201000   1312.2495     -29238.701      0             -27881.898      55834.559    
    201500   1293.1965     -29247.348      0             -27910.245      55493.046    
    202000   1297.6956     -29242.774      0             -27901.019      55683.949    
    202500   1283.9489     -29236.234      0             -27908.693      55497.97     
    203000   1321.1432     -29250.072      0             -27884.073      55795.991    
    203500   1302.5783     -29230.921      0             -27884.118      56268.245    
    204000   1286.1651     -29235.273      0             -27905.44       55910.055    
    204500   1293.5978     -29235.174      0             -27897.656      55910.368    
    205000   1280.5248     -29258.84       0             -27934.839      55092.038    
    205500   1286.0254     -29261.081      0             -27931.393      54731.162    
    206000   1312.1005     -29235.038      0             -27878.389      55821.333    
    206500   1298.0103     -29230.732      0             -27888.652      56174.206    
    207000   1302.6982     -29242.226      0             -27895.299      55788.482    
    207500   1290.3963     -29247.863      0             -27913.655      55224.047    
    208000   1318.5712     -29252.331      0             -27888.992      55505.835    
    208500   1312.6249     -29255.767      0             -27898.576      55119.224    
    209000   1301.4685     -29258.629      0             -27912.973      55511.566    
    209500   1302.3991     -29275.901      0             -27929.283      54811.906    
    210000   1288.132      -29221.493      0             -27889.626      56210.507    
    210500   1294.3649     -29249.67       0             -27911.359      55230.432    
    211000   1284.2422     -29244.399      0             -27916.554      55436.217    
    211500   1295.556      -29250.85       0             -27911.307      55515.581    
    212000   1304.1865     -29242.692      0             -27894.226      55919.677    
    212500   1303.0936     -29242.719      0             -27895.383      56071.252    
    213000   1306.7572     -29251.401      0             -27900.277      55410.447    
    213500   1313.5743     -29236.756      0             -27878.583      55686.972    
    214000   1329.433      -29233.263      0             -27858.693      56112.349    
    214500   1294.2888     -29248.683      0             -27910.451      55262.632    
    215000   1315.7878     -29245.036      0             -27884.575      55493.199    
    215500   1304.7575     -29257.14       0             -27908.083      54990.902    
    216000   1299.1707     -29242.147      0             -27898.867      55390.731    
    216500   1287.2892     -29247.183      0             -27916.188      55450.015    
    217000   1272.7456     -29237.221      0             -27921.264      55767.837    
    217500   1299.5029     -29255.782      0             -27912.158      55431.626    
    218000   1304.0504     -29237.766      0             -27889.44       55544.601    
    218500   1279.5973     -29250.704      0             -27927.662      55356.586    
    219000   1291.2262     -29248.162      0             -27913.096      55443.444    
    219500   1315.8428     -29244.144      0             -27883.626      55565.554    
    220000   1304.4125     -29233.43       0             -27884.73       56213.469    
    220500   1314.067      -29236.643      0             -27877.961      55733.418    
    221000   1286.7904     -29251.424      0             -27920.945      55192.475    
    221500   1302.0723     -29242.413      0             -27896.133      55880.432    
    222000   1304.8208     -29235.414      0             -27886.292      56186.021    
    222500   1291.4762     -29232.015      0             -27896.691      56155.746    
    223000   1268.5836     -29258.341      0             -27946.687      55369.785    
    223500   1318.362      -29253.587      0             -27890.464      55390.225    
    224000   1306.026      -29258.244      0             -27907.876      54991.558    
    224500   1310.7457     -29253.401      0             -27898.153      55073.759    
    225000   1309.0114     -29259.679      0             -27906.224      55432.47     
    225500   1308.6815     -29250.618      0             -27897.504      55499.4      
    226000   1306.9981     -29237.843      0             -27886.47       55942.649    
    226500   1289.0947     -29243.345      0             -27910.483      55538.792    
    227000   1321.1043     -29234.453      0             -27868.495      56061.869    
    227500   1330.4477     -29231.369      0             -27855.75       56429.708    
    228000   1278.0976     -29237.416      0             -27915.924      55991.971    
    228500   1304.5918     -29267.991      0             -27919.106      54729.084    
    229000   1305.0037     -29236.962      0             -27887.651      55868.388    
    229500   1315.2514     -29252.64       0             -27892.733      56037.841    
    230000   1320.3404     -29213.371      0             -27848.202      56855.423    
    230500   1293.8988     -29254.009      0             -27916.18       55166.923    
    231000   1307.8506     -29264.792      0             -27912.537      54843.059    
    231500   1302.5613     -29236.587      0             -27889.801      56231.902    
    232000   1307.9183     -29259.819      0             -27907.495      55120.81     
    232500   1291.3721     -29251.04       0             -27915.824      55144.483    
    233000   1303.8614     -29241.886      0             -27893.757      55617.899    
    233500   1325.2459     -29236.963      0             -27866.723      55938.012    
    234000   1300.0347     -29236.159      0             -27891.985      56139.305    
    234500   1298.9012     -29242.78       0             -27899.779      55647.569    
    235000   1309.2711     -29258.492      0             -27904.769      55205.151    
    235500   1297.8853     -29231.509      0             -27889.558      55806.778    
    236000   1294.6377     -29248.984      0             -27910.391      55398.945    
    236500   1282.3191     -29264.375      0             -27938.519      54835.08     
    237000   1284.0401     -29247.434      0             -27919.798      55244.276    
    237500   1293.5582     -29237.589      0             -27900.112      55906.807    
    238000   1309.1201     -29260.168      0             -27906.601      55372.477    
    238500   1291.3111     -29256.349      0             -27921.196      55005.784    
    239000   1294.1239     -29259.359      0             -27921.297      55240.105    
    239500   1279.6874     -29250.753      0             -27927.618      55502.621    
    240000   1292.8764     -29245.146      0             -27908.373      55652.941    
    240500   1303.1202     -29258.663      0             -27911.299      55436.05     
    241000   1315.5541     -29219.846      0             -27859.627      56505.834    
    241500   1294.0564     -29251.025      0             -27913.033      55924.972    
    242000   1294.3025     -29253.865      0             -27915.619      55397.815    
    242500   1303.9561     -29248.175      0             -27899.947      55517.266    
    243000   1307.1868     -29218.262      0             -27866.694      56625.317    
    243500   1284.1896     -29226.587      0             -27898.797      56182.609    
    244000   1312.564      -29229.847      0             -27872.719      56073.196    
    244500   1294.8076     -29250.91       0             -27912.142      55275.141    
    245000   1287.9912     -29244.419      0             -27912.698      55412.662    
    245500   1292.4009     -29254.793      0             -27918.513      55188.814    
    246000   1288.5138     -29240.764      0             -27908.503      55878.461    
    246500   1308.7141     -29251.877      0             -27898.729      55584.757    
    247000   1298.198      -29237.324      0             -27895.049      55884.474    
    247500   1296.3971     -29230.251      0             -27889.839      56112.788    
    248000   1299.9387     -29252.748      0             -27908.673      55347.053    
    248500   1306.0966     -29246.14       0             -27895.699      55830.22     
    249000   1315.5238     -29245.372      0             -27885.184      55468.201    
    249500   1295.6165     -29250.368      0             -27910.763      55523.873    
    250000   1295.5486     -29235.119      0             -27895.584      55627.027    
    250500   1284.699      -29230.251      0             -27901.934      55936.175    
    251000   1315.1111     -29261.215      0             -27901.453      55126.442    
    251500   1277.7729     -29239.203      0             -27918.047      55454.379    
    252000   1299.6952     -29258.59       0             -27914.767      54766.9      
    252500   1297.3973     -29239.598      0             -27898.152      55373.368    
    253000   1298.1535     -29244.266      0             -27902.038      55339.365    
    253500   1305.0133     -29249.703      0             -27900.382      55441.024    
    254000   1283.268      -29254.318      0             -27927.481      55295.734    
    254500   1301.7968     -29230.188      0             -27884.193      56078.768    
    255000   1280.8218     -29242.833      0             -27918.525      55787.095    
    255500   1303.5337     -29242.496      0             -27894.705      55584.455    
    256000   1306.5898     -29243.288      0             -27892.337      56429.89     
    256500   1313.5593     -29264.276      0             -27906.119      54848.916    
    257000   1308.6136     -29248.007      0             -27894.963      55410.092    
    257500   1310.5079     -29246.454      0             -27891.452      55072.235    
    258000   1308.3197     -29247.235      0             -27894.496      55725.861    
    258500   1325.9494     -29267.215      0             -27896.247      54954.781    
    259000   1296.5475     -29235.623      0             -27895.056      55789.572    
    259500   1300.5213     -29259.741      0             -27915.065      55290.72     
    260000   1301.394      -29239.884      0             -27894.305      55983.017    
    260500   1295.3137     -29259.286      0             -27919.994      55212.213    
    261000   1306.9383     -29234.95       0             -27883.639      56173.575    
    261500   1299.1446     -29246.55       0             -27903.297      55453.474    
    262000   1291.015      -29228.097      0             -27893.25       56155.129    
    262500   1299.6705     -29263.486      0             -27919.689      54834.979    
    263000   1309.901      -29256.042      0             -27901.667      55198.651    
    263500   1299.0125     -29246.909      0             -27903.793      55417.203    
    264000   1307.2113     -29245.415      0             -27893.822      55627.103    
    264500   1289.6319     -29231.792      0             -27898.375      56224.543    
    265000   1292.1696     -29255.824      0             -27919.783      55354.086    
    265500   1304.7643     -29251.208      0             -27902.144      55367.993    
    266000   1291.2121     -29228.393      0             -27893.342      56048.642    
    266500   1310.9346     -29251.254      0             -27895.811      55424.611    
    267000   1283.3084     -29268.021      0             -27941.142      54645.534    
    267500   1289.9073     -29238.931      0             -27905.229      56097.68     
    268000   1274.5674     -29252.483      0             -27934.642      55221.468    
    268500   1309.6498     -29249.146      0             -27895.031      54830.021    
    269000   1286.371      -29236.42       0             -27906.374      56060.991    
    269500   1282.6624     -29242.201      0             -27915.989      55831.903    
    270000   1336.4869     -29249.015      0             -27867.152      55550.642    
    270500   1296.9054     -29248.077      0             -27907.139      55500.778    
    271000   1289.9378     -29234.801      0             -27901.068      55628.359    
    271500   1289.852      -29267.125      0             -27933.48       54468.191    
    272000   1314.0158     -29253.585      0             -27894.956      55560.885    
    272500   1295.429      -29244.346      0             -27904.935      55748.525    
    273000   1288.2378     -29259.573      0             -27927.597      55054.349    
    273500   1310.1722     -29247.835      0             -27893.18       56066.702    
    274000   1319.1454     -29241.532      0             -27877.599      55710.957    
    274500   1320.3607     -29247.57       0             -27882.38       55619.191    
    275000   1308.0841     -29244.678      0             -27892.182      55623.85     
    275500   1303.5175     -29251.942      0             -27904.168      55446.602    
    276000   1309.6516     -29263.503      0             -27909.386      54970.378    
    276500   1310.6606     -29228.962      0             -27873.802      56304.781    
    277000   1294.2152     -29242.654      0             -27904.498      55650.672    
    277500   1318.8137     -29265.623      0             -27902.033      55270.769    
    278000   1310.7204     -29251.742      0             -27896.52       55401.84     
    278500   1307.3274     -29243.934      0             -27892.22       55522.731    
    279000   1319.1933     -29250.754      0             -27886.771      55560.329    
    279500   1303.087      -29260.009      0             -27912.68       54920.944    
    280000   1311.8638     -29228.342      0             -27871.938      56304.351    
    280500   1316.6347     -29258.299      0             -27896.962      55466.948    
    281000   1293.6385     -29248.303      0             -27910.743      55817.482    
    281500   1291.4805     -29258.267      0             -27922.938      55175.683    
    282000   1309.5115     -29238.001      0             -27884.029      56132.257    
    282500   1304.306      -29244.918      0             -27896.328      55738.153    
    283000   1289.5428     -29255.215      0             -27921.89       55518.969    
    283500   1315.2681     -29249.915      0             -27889.991      55483.282    
    284000   1303.8849     -29256.714      0             -27908.56       55265.501    
    284500   1300.4244     -29233.01       0             -27888.434      55933.888    
    285000   1316.8062     -29260.575      0             -27899.061      55034.948    
    285500   1307.5819     -29232.398      0             -27880.422      56243.133    
    286000   1299.4364     -29248.318      0             -27904.763      55898.249    
    286500   1322.3444     -29258.698      0             -27891.458      55424.746    
    287000   1304.4676     -29247.833      0             -27899.077      55610.534    
    287500   1288.736      -29277.266      0             -27944.775      54435.105    
    288000   1302.717      -29241.043      0             -27894.096      55721.882    
    288500   1302.9603     -29251.511      0             -27904.312      55222.561    
    289000   1321.5827     -29244.649      0             -27878.196      55537.219    
    289500   1299.4449     -29240.537      0             -27896.973      55481.464    
    290000   1271.8701     -29244.297      0             -27929.245      55184.879    
    290500   1304.9826     -29242.508      0             -27893.219      55503.644    
    291000   1300.5065     -29242.241      0             -27897.58       55440.424    
    291500   1293.2509     -29262.999      0             -27925.84       54814.81     
    292000   1306.1494     -29236.768      0             -27886.273      56131.79     
    292500   1304.1955     -29259.122      0             -27910.646      54950.175    
    293000   1286.0841     -29237.561      0             -27907.812      55518.496    
    293500   1289.8839     -29232.158      0             -27898.481      55652.778    
    294000   1294.8509     -29262.452      0             -27923.639      54905.909    
    294500   1304.3996     -29244.342      0             -27895.655      56119.691    
    295000   1310.0667     -29257.664      0             -27903.118      55301.054    
    295500   1323.2889     -29248.914      0             -27880.697      55363.46     
    296000   1319.4147     -29254.817      0             -27890.606      55217.705    
    296500   1292.4583     -29254.603      0             -27918.263      55297.774    
    297000   1293.6182     -29274.345      0             -27936.806      54299.69     
    297500   1303.6466     -29226.042      0             -27878.134      56038.966    
    298000   1308.9772     -29248.192      0             -27894.773      55405.563    
    298500   1307.7316     -29242.097      0             -27889.966      55618.241    
    299000   1303.1865     -29242.784      0             -27895.352      55418.56     
    299500   1277.4279     -29230.767      0             -27909.968      56157.377    
    300000   1299.6298     -29251.172      0             -27907.417      55319.222    
    300500   1289.2325     -29242.759      0             -27909.755      55302.772    
    301000   1300.7916     -29241.852      0             -27896.896      55724.071    
    301500   1308.6423     -29235.525      0             -27882.452      55591.396    
    302000   1320.1812     -29268.796      0             -27903.792      54869.55     
    302500   1296.7974     -29234.155      0             -27893.329      55566.36     
    303000   1314.2046     -29249.27       0             -27890.446      55908.496    
    303500   1315.229      -29230.788      0             -27870.904      56142.269    
    304000   1296.9588     -29238.219      0             -27897.226      55920.5      
    304500   1313.8365     -29239.07       0             -27880.626      55754.262    
    305000   1280.9679     -29243.385      0             -27918.926      55008.476    
    305500   1313.1002     -29256.409      0             -27898.726      55252.128    
    306000   1306.1845     -29239.001      0             -27888.469      55410.263    
    306500   1288.7994     -29265.576      0             -27933.019      54928.792    
    307000   1285.2229     -29259.312      0             -27930.453      55106.495    
    307500   1312.2523     -29242.879      0             -27886.073      55660.307    
    308000   1317.6798     -29258.962      0             -27896.544      55428.426    
    308500   1289.8378     -29254.909      0             -27921.278      55093.555    
    309000   1321.5951     -29245.105      0             -27878.639      56083.434    
    309500   1311.8356     -29263.767      0             -27907.392      54705.673    
    310000   1311.3982     -29225.699      0             -27869.776      56358.343    
    310500   1289.6374     -29273.124      0             -27939.701      54915.503    
    311000   1309.0924     -29220.952      0             -27867.413      56937.035    
    311500   1309.7539     -29234.026      0             -27879.803      55811.169    
    312000   1292.5928     -29256.712      0             -27920.234      55281.351    
    312500   1307.393      -29269.041      0             -27917.259      55209.846    
    313000   1299.5639     -29250.335      0             -27906.649      55623.992    
    313500   1298.2705     -29251.525      0             -27909.176      55246.211    
    314000   1300.9116     -29234.404      0             -27889.324      55724.377    
    314500   1309.3031     -29249.506      0             -27895.749      55328.664    
    315000   1303.1554     -29260.349      0             -27912.949      55044.755    
    315500   1310.063      -29237.279      0             -27882.736      55353.367    
    316000   1294.0293     -29253.928      0             -27915.964      55231.508    
    316500   1326.2432     -29236.717      0             -27865.446      56454.303    
    317000   1305.5836     -29243.171      0             -27893.26       55582.231    
    317500   1304.0452     -29252.414      0             -27904.094      55592.116    
    318000   1293.1395     -29231.328      0             -27894.284      55976.532    
    318500   1301.8234     -29254.938      0             -27908.916      55124.925    
    319000   1307.2837     -29267.456      0             -27915.788      55214.729    
    319500   1298.8638     -29247.524      0             -27904.562      55373.94     
    320000   1273.9139     -29230.369      0             -27913.203      55964.788    
    320500   1305.1301     -29248.176      0             -27898.734      55242.468    
    321000   1303.0119     -29240.63       0             -27893.378      55923.352    
    321500   1289.0892     -29254.504      0             -27921.648      55260.251    
    322000   1301.9728     -29247.767      0             -27901.59       55625.059    
    322500   1282.5985     -29223.83       0             -27897.685      56361.015    
    323000   1305.6121     -29261.287      0             -27911.347      54803.083    
    323500   1293.0993     -29244.541      0             -27907.539      55588.49     
    324000   1293.1692     -29231.561      0             -27894.486      55565.289    
    324500   1284.3941     -29262.298      0             -27934.296      55072.947    
    325000   1314.0165     -29242.029      0             -27883.399      56254.615    
    325500   1311.5302     -29250.707      0             -27894.648      55492.078    
    326000   1290.5069     -29233.505      0             -27899.183      55971.32     
    326500   1291.1334     -29246.167      0             -27911.197      55086.338    
    327000   1333.3113     -29246.313      0             -27867.733      56119.878    
    327500   1307.4973     -29237.636      0             -27885.747      56168.571    
    328000   1306.3007     -29225.782      0             -27875.13       56244.484    
    328500   1297.0683     -29270.024      0             -27928.918      54447.6      
    329000   1310.1938     -29247.813      0             -27893.136      55375.184    
    329500   1301.0392     -29253.468      0             -27908.256      55800.169    
    330000   1272.27       -29250.36       0             -27934.894      55671.889    
    330500   1306.8668     -29249.25       0             -27898.012      55257.528    
    331000   1300.6499     -29267.236      0             -27922.427      54794.346    
    331500   1286.9111     -29245.948      0             -27915.344      55009.949    
    332000   1286.3283     -29249.362      0             -27919.361      55399.656    
    332500   1302.5849     -29233.07       0             -27886.259      56577.967    
    333000   1287.4255     -29243.925      0             -27912.789      55735.729    
    333500   1298.104      -29227.671      0             -27885.494      56522.873    
    334000   1286.6513     -29256.301      0             -27925.965      55231.253    
    334500   1306.5313     -29255.039      0             -27904.148      55153.603    
    335000   1300.1979     -29256.334      0             -27911.992      55247.91     
    335500   1292.4109     -29258.461      0             -27922.17       54924.34     
    336000   1300.3704     -29233.286      0             -27888.766      55467.659    
    336500   1299.639      -29248.183      0             -27904.419      55781.344    
    337000   1289.4431     -29255.035      0             -27921.813      54575.915    
    337500   1303.2177     -29233.41       0             -27885.945      55660.703    
    338000   1287.644      -29230.709      0             -27899.347      55803.069    
    338500   1299.827      -29236.793      0             -27892.834      56245.039    
    339000   1295.7026     -29247.498      0             -27907.804      55607.945    
    339500   1303.3046     -29239.08       0             -27891.526      55459.157    
    340000   1335.0324     -29231.146      0             -27850.787      56275.267    
    340500   1298.7018     -29230.869      0             -27888.074      56291.231    
    341000   1302.8883     -29242.128      0             -27895.004      55806.634    
    341500   1288.8516     -29263.248      0             -27930.637      54855.242    
    342000   1286.4138     -29228.492      0             -27898.402      55925.054    
    342500   1278.5903     -29228.398      0             -27906.397      55974.145    
    343000   1308.5606     -29235.009      0             -27882.02       56242.627    
    343500   1292.4704     -29236.563      0             -27900.211      56251.835    
    344000   1313.4454     -29243.598      0             -27885.558      56196.842    
    344500   1292.1776     -29238.34       0             -27902.291      55697.039    
    345000   1288.0354     -29258.64       0             -27926.873      54767.363    
    345500   1321.3324     -29229.138      0             -27862.944      56624.329    
    346000   1294.1727     -29257.054      0             -27918.942      54499.942    
    346500   1309.6722     -29244.924      0             -27890.786      55880.776    
    347000   1299.6704     -29255.309      0             -27911.512      54967.087    
    347500   1295.665      -29267.372      0             -27927.717      55093.526    
    348000   1297.9743     -29256.049      0             -27914.006      55217.845    
    348500   1306.3636     -29235.676      0             -27884.959      55901.909    
    349000   1290.4895     -29237.304      0             -27903          55765.673    
    349500   1292.5134     -29239.675      0             -27903.278      55841.079    
    350000   1270.1795     -29258.235      0             -27944.93       54744.846    
    350500   1266.8094     -29252.426      0             -27942.606      55141.525    
    351000   1302.5787     -29239.956      0             -27893.152      55731.727    
    351500   1302.7271     -29233.845      0             -27886.888      56198.132    
    352000   1311.3417     -29260.21       0             -27904.346      55588.996    
    352500   1300.0498     -29242.324      0             -27898.135      56003.939    
    353000   1285.5267     -29242.635      0             -27913.463      55997.246    
    353500   1278.809      -29230.241      0             -27908.014      56069.438    
    354000   1308.5313     -29247.244      0             -27894.286      55850.4      
    354500   1288.2514     -29246.303      0             -27914.313      55744.428    
    355000   1302.5262     -29256.694      0             -27909.944      55281.16     
    355500   1321.7677     -29264.028      0             -27897.384      54721.52     
    356000   1293.9169     -29257.681      0             -27919.833      55487.1      
    356500   1290.1414     -29235.664      0             -27901.72       55612.972    
    357000   1290.9064     -29250.694      0             -27915.959      55555        
    357500   1302.5261     -29260.236      0             -27913.487      54556.055    
    358000   1295.7913     -29256.695      0             -27916.91       55083.236    
    358500   1309.602      -29241.802      0             -27887.736      55751.032    
    359000   1289.5287     -29247.712      0             -27914.401      55558.537    
    359500   1311.3281     -29238.014      0             -27882.164      56193.125    
    360000   1296.5775     -29242.747      0             -27902.149      55627.858    
    360500   1282.2623     -29232.241      0             -27906.444      55844.036    
    361000   1327.2022     -29221.051      0             -27848.788      56753.757    
    361500   1296.8397     -29249.512      0             -27908.642      55658.636    
    362000   1280.4872     -29241.459      0             -27917.497      55495.211    
    362500   1304.2103     -29245.418      0             -27896.928      55405.44     
    363000   1298.6468     -29233.248      0             -27890.51       56225.813    
    363500   1285.9604     -29226.447      0             -27896.826      56004.915    
    364000   1288.8501     -29236.212      0             -27903.603      55848.705    
    364500   1302.0981     -29246.963      0             -27900.657      55739.62     
    365000   1309.8301     -29205.872      0             -27851.571      57170.296    
    365500   1293.5532     -29251.709      0             -27914.237      55346.507    
    366000   1281.1717     -29229.459      0             -27904.789      56372.293    
    366500   1291.9298     -29248.513      0             -27912.72       55487.643    
    367000   1294.2907     -29222.068      0             -27883.833      56749.969    
    367500   1287.5643     -29236.012      0             -27904.732      55877.649    
    368000   1302.3735     -29252.957      0             -27906.365      55260.928    
    368500   1290.1604     -29255.048      0             -27921.084      55135.246    
    369000   1292.6668     -29225.808      0             -27889.253      56300.693    
    369500   1304.3369     -29260.123      0             -27911.501      55242.41     
    370000   1292.0878     -29231.654      0             -27895.698      55944.941    
    370500   1303.5682     -29261.556      0             -27913.73       54619.167    
    371000   1304.4883     -29260.329      0             -27911.551      54839.792    
    371500   1315.4131     -29244.051      0             -27883.977      55956.579    
    372000   1305.2789     -29260.07       0             -27910.474      54648.747    
    372500   1303.8409     -29258.209      0             -27910.1        55368.402    
    373000   1313.9675     -29235.359      0             -27876.779      55919.595    
    373500   1288.0219     -29260.893      0             -27929.14       54551.942    
    374000   1298.6875     -29234.664      0             -27891.883      55556.394    
    374500   1300.5586     -29268.134      0             -27923.419      55196.983    
    375000   1315.8402     -29246.579      0             -27886.064      55565.331    
    375500   1302.3407     -29234.623      0             -27888.065      55779.106    
    376000   1301.7097     -29252.563      0             -27906.658      55733.318    
    376500   1300.8977     -29248.64       0             -27903.575      55547.04     
    377000   1301.5276     -29242.803      0             -27897.086      55796.294    
    377500   1320.9375     -29251.198      0             -27885.412      55890.844    
    378000   1296.1125     -29253.954      0             -27913.836      55261.92     
    378500   1298.2563     -29261.439      0             -27919.104      54936.22     
    379000   1298.9155     -29231.934      0             -27888.918      55780.409    
    379500   1292.6481     -29236.408      0             -27899.872      55645.001    
    380000   1292.3653     -29249.784      0             -27913.541      55472.408    
    380500   1305.265      -29247.203      0             -27897.621      55252.39     
    381000   1294.7251     -29241.825      0             -27903.142      55650.008    
    381500   1308.985      -29237.109      0             -27883.681      56120.996    
    382000   1309.9529     -29247.482      0             -27893.054      55863.922    
    382500   1308.6193     -29271.222      0             -27918.172      54832.196    
    383000   1269.6008     -29252.904      0             -27940.198      54585.701    
    383500   1328.0678     -29239.9        0             -27866.741      55783.793    
    384000   1301.0059     -29246.826      0             -27901.649      55452.832    
    384500   1322.8298     -29250.819      0             -27883.077      54995.412    
    385000   1297.9739     -29260.382      0             -27918.34       54929.11     
    385500   1294.1486     -29246.681      0             -27908.593      55487.493    
    386000   1304.6648     -29236.235      0             -27887.274      56335.357    
    386500   1298.8551     -29268.399      0             -27925.445      54629.274    
    387000   1290.2653     -29231.707      0             -27897.635      56124.802    
    387500   1299.4278     -29255.935      0             -27912.389      55189.906    
    388000   1300.0363     -29245.191      0             -27901.016      55840.846    
    388500   1302.4917     -29250.54       0             -27903.827      55972.39     
    389000   1317.2981     -29240.817      0             -27878.794      55985.731    
    389500   1302.6286     -29243.674      0             -27896.819      56000.515    
    390000   1311.1717     -29252.927      0             -27897.239      55648.642    
    390500   1293.5122     -29236.324      0             -27898.895      55756.951    
    391000   1294.4797     -29250.61       0             -27912.18       55549.535    
    391500   1286.6296     -29248.333      0             -27918.02       55085.971    
    392000   1311.2942     -29250.888      0             -27895.073      55674.901    
    392500   1294.6151     -29257.906      0             -27919.337      54960.119    
    393000   1304.4707     -29237.913      0             -27889.153      56215.496    
    393500   1301.5682     -29267.727      0             -27921.968      54606.457    
    394000   1311.0324     -29231.931      0             -27876.387      56092.895    
    394500   1323.4167     -29253.314      0             -27884.965      55598.812    
    395000   1299.1448     -29245.672      0             -27902.418      55540.64     
    395500   1289.1564     -29244.489      0             -27911.563      55136.866    
    396000   1304.1059     -29241.338      0             -27892.955      55260.667    
    396500   1298.8475     -29246.706      0             -27903.76       55298.893    
    397000   1295.858      -29236.789      0             -27896.934      55514.83     
    397500   1287.6027     -29260.483      0             -27929.164      55102.592    
    398000   1309.8697     -29235.108      0             -27880.766      56241.099    
    398500   1285.0032     -29253.312      0             -27924.681      55071.668    
    399000   1302.3056     -29243.722      0             -27897.201      55351.759    
    399500   1312.0782     -29246.464      0             -27889.839      55281.997    
    400000   1300.8281     -29239.542      0             -27894.549      55846.487    
    400500   1293.4402     -29250.631      0             -27913.276      55531.152    
    401000   1308.507      -29261.233      0             -27908.299      55170.594    
    401500   1303.2135     -29256.438      0             -27908.978      54933.329    
    402000   1278.9913     -29238.483      0             -27916.068      56053.112    
    402500   1304.6714     -29261.149      0             -27912.182      55351.427    
    403000   1313.9541     -29257.696      0             -27899.131      55170.989    
    403500   1293.3292     -29265.125      0             -27927.884      54279.081    
    404000   1290.9523     -29234.996      0             -27900.213      56301.165    
    404500   1293.5374     -29255.696      0             -27918.241      55087.675    
    405000   1297.705      -29242.89       0             -27901.126      55492.654    
    405500   1287.3909     -29238.662      0             -27907.561      55440.699    
    406000   1290.5716     -29227.671      0             -27893.282      56256.55     
    406500   1308.3137     -29253.725      0             -27900.992      54963.643    
    407000   1279.6564     -29239.112      0             -27916.009      55633.822    
    407500   1299.9232     -29247.929      0             -27903.871      55424.439    
    408000   1304.3721     -29220.004      0             -27871.346      55887.143    
    408500   1300.9191     -29232.174      0             -27887.086      56182.289    
    409000   1318.3955     -29232.232      0             -27869.074      56260.255    
    409500   1316.1895     -29238.168      0             -27877.291      56015.705    
    410000   1296.0999     -29235.54       0             -27895.435      55552.505    
    410500   1287.865      -29234.094      0             -27902.503      55876.711    
    411000   1283.0773     -29242.361      0             -27915.721      55815.018    
    411500   1293.8395     -29252.147      0             -27914.379      55019.004    
    412000   1281.1785     -29224.67       0             -27899.993      56105.713    
    412500   1290.9598     -29246.278      0             -27911.488      55525.775    
    413000   1305.2305     -29237.637      0             -27888.091      56288.62     
    413500   1309.1826     -29242.366      0             -27888.734      55593.3      
    414000   1306.7534     -29231.831      0             -27880.711      56101.4      
    414500   1295.1354     -29241.143      0             -27902.035      56130.571    
    415000   1302.7658     -29248.039      0             -27901.042      55763.496    
    415500   1294.9992     -29236.019      0             -27897.052      56024.601    
    416000   1304.68       -29228.023      0             -27879.046      56318.737    
    416500   1295.8282     -29243.603      0             -27903.779      55861.506    
    417000   1289.1438     -29250.524      0             -27917.611      55018.881    
    417500   1324.9302     -29255.959      0             -27886.045      55262.934    
    418000   1295.1194     -29263.026      0             -27923.935      55263.72     
    418500   1308.9848     -29254.807      0             -27901.38       55267.607    
    419000   1301.0552     -29249.793      0             -27904.565      55364.861    
    419500   1280.2094     -29240.743      0             -27917.068      55829.607    
    420000   1314.7668     -29233.851      0             -27874.446      55802.942    
    420500   1321.1753     -29258.14       0             -27892.108      54972.405    
    421000   1295.0139     -29225.253      0             -27886.271      56243.458    
    421500   1286.4424     -29267.666      0             -27937.546      54486.481    
    422000   1302.3242     -29244.691      0             -27898.15       55646.661    
    422500   1292.794      -29245.563      0             -27908.876      55415.483    
    423000   1307.1642     -29255.929      0             -27904.385      55103.101    
    423500   1291.0236     -29238.071      0             -27903.214      55330.791    
    424000   1311.4663     -29243.284      0             -27887.291      55530.365    
    424500   1274.3119     -29239.053      0             -27921.476      55462.79     
    425000   1286.4229     -29255.556      0             -27925.457      55746.939    
    425500   1301.4807     -29232.565      0             -27886.897      55734.851    
    426000   1281.008      -29239.856      0             -27915.355      56105.276    
    426500   1290.7897     -29239.307      0             -27904.693      55222.126    
    427000   1294.3517     -29236.437      0             -27898.139      56081.855    
    427500   1289.017      -29239.219      0             -27906.437      55378.155    
    428000   1312.0892     -29226.695      0             -27870.058      56381.633    
    428500   1293.5688     -29269.703      0             -27932.215      54812.926    
    429000   1304.27       -29252.228      0             -27903.676      54934.48     
    429500   1283.7151     -29246.721      0             -27919.421      55314.408    
    430000   1305.0951     -29235.78       0             -27886.374      56654.189    
    430500   1304.764      -29246.997      0             -27897.934      55124.751    
    431000   1300.7778     -29241.429      0             -27896.487      55651.872    
    431500   1298.889      -29239.21       0             -27896.222      55282.665    
    432000   1279.4779     -29248.821      0             -27925.902      55379.804    
    432500   1323.3907     -29270.098      0             -27901.775      54715.597    
    433000   1289.7211     -29243.475      0             -27909.966      55584.955    
    433500   1309.715      -29232.569      0             -27878.387      55997.073    
    434000   1297.4875     -29269.525      0             -27927.986      54588.693    
    434500   1300.5681     -29250.064      0             -27905.34       55759.932    
    435000   1308.3256     -29250.785      0             -27898.039      55600.255    
    435500   1310.1907     -29255.771      0             -27901.097      55093.698    
    436000   1300.6905     -29255.874      0             -27911.023      55334.603    
    436500   1297.401      -29234.522      0             -27893.072      56008.644    
    437000   1319.001      -29236.206      0             -27872.423      55995.703    
    437500   1278.6373     -29247.196      0             -27925.146      55391.685    
    438000   1304.501      -29262.229      0             -27913.437      54897.452    
    438500   1318.0979     -29254.862      0             -27892.012      55053.488    
    439000   1287.4889     -29246.994      0             -27915.792      55383.852    
    439500   1320.223      -29240.041      0             -27874.993      56054.737    
    440000   1286.843      -29256.205      0             -27925.671      55006.934    
    440500   1309.1398     -29242.318      0             -27888.73       55820.186    
[...]
   1892500   1313.8057     -29265.185      0             -27906.773      55365.993    
   1893000   1286.5156     -29263.934      0             -27933.739      55306.418    
   1893500   1295.1562     -29247.792      0             -27908.663      55591.721    
   1894000   1308.1148     -29252.698      0             -27900.17       55733.402    
   1894500   1313.1598     -29230.583      0             -27872.839      55651.138    
   1895000   1303.3398     -29258.845      0             -27911.254      54974.75     
   1895500   1318.6712     -29250.68       0             -27887.238      55173.109    
   1896000   1297.1163     -29247.748      0             -27906.592      55682.247    
   1896500   1294.7709     -29251.117      0             -27912.386      55273.281    
   1897000   1311.2608     -29240.35       0             -27884.569      55945.623    
   1897500   1295.9032     -29240.671      0             -27900.769      55901.739    
   1898000   1313.3049     -29253.982      0             -27896.087      55386.265    
   1898500   1306.8725     -29243.939      0             -27892.696      55247.074    
   1899000   1302.3186     -29228.458      0             -27881.924      56121.322    
   1899500   1295.4605     -29256.276      0             -27916.832      54878.277    
   1900000   1306.8722     -29257.669      0             -27906.426      54799.076    
   1900500   1295.3219     -29249.727      0             -27910.426      55518.405    
   1901000   1310.7981     -29254.923      0             -27899.621      55352.665    
   1901500   1313.5676     -29259.478      0             -27901.312      55758.247    
   1902000   1316.3813     -29234.902      0             -27873.827      56215.474    
   1902500   1289.921      -29247.106      0             -27913.39       55151.924    
   1903000   1304.6689     -29245.128      0             -27896.163      55469.06     
   1903500   1282.3931     -29250.638      0             -27924.705      55067.265    
   1904000   1307.3522     -29260.364      0             -27908.625      55327.482    
   1904500   1296.7828     -29246.864      0             -27906.053      55561.128    
   1905000   1309.2269     -29245.466      0             -27891.788      55509.909    
   1905500   1319.6447     -29259.458      0             -27895.009      54874.762    
   1906000   1317.0394     -29241.687      0             -27879.932      55688.065    
   1906500   1310.2726     -29259.43       0             -27904.672      54898.364    
   1907000   1317.9278     -29245.588      0             -27882.914      55718.264    
   1907500   1320.4878     -29272.694      0             -27907.374      54506.3      
   1908000   1312.144      -29250.076      0             -27893.382      55610.14     
   1908500   1291.4357     -29243.002      0             -27907.719      55650.651    
   1909000   1306.6394     -29238.212      0             -27887.209      56197.244    
   1909500   1297.0814     -29258.043      0             -27916.923      55156.536    
   1910000   1304.7122     -29231.949      0             -27882.94       56168.289    
   1910500   1315.2713     -29231.078      0             -27871.15       56388.929    
   1911000   1309.6796     -29263.382      0             -27909.236      55170.222    
   1911500   1278.7511     -29256.399      0             -27934.232      55111.414    
   1912000   1289.8395     -29231.264      0             -27897.632      56041.187    
   1912500   1314.0713     -29246.029      0             -27887.342      55214.084    
   1913000   1302.6329     -29260.18       0             -27913.321      54793.52     
   1913500   1287.5492     -29247.236      0             -27915.972      55191.536    
   1914000   1313.3596     -29238.873      0             -27880.922      55501.853    
   1914500   1289.8683     -29240.294      0             -27906.632      55799.054    
   1915000   1300.1593     -29247.253      0             -27902.951      55195.477    
   1915500   1310.3815     -29250.062      0             -27895.191      55694.477    
   1916000   1287.4252     -29243.352      0             -27912.216      55634.51     
   1916500   1305.3542     -29246.377      0             -27896.704      55712.303    
   1917000   1290.8665     -29219.988      0             -27885.294      56504.091    
   1917500   1321.685      -29264.041      0             -27897.483      55012.978    
   1918000   1305.6193     -29252.444      0             -27902.497      55284.322    
   1918500   1290.9792     -29246.155      0             -27911.345      55067.764    
   1919000   1289.6568     -29230.028      0             -27896.585      56027.469    
   1919500   1281.5435     -29242.851      0             -27917.797      55674.531    
   1920000   1297.128      -29242.922      0             -27901.754      55905.569    
   1920500   1303.0815     -29243.014      0             -27895.691      56063.789    
   1921000   1285.8101     -29236.533      0             -27907.067      55683.001    
   1921500   1287.5025     -29262.245      0             -27931.029      54567.619    
   1922000   1300.3478     -29238.89       0             -27894.393      55152.576    
   1922500   1284.0233     -29233.881      0             -27906.262      56099.44     
   1923000   1277.9115     -29244.214      0             -27922.915      55577.178    
   1923500   1313.8399     -29243.555      0             -27885.108      55660.967    
   1924000   1296.4729     -29240.852      0             -27900.362      55658.853    
   1924500   1300.9638     -29224.732      0             -27879.598      56453.994    
   1925000   1307.1061     -29233.159      0             -27881.674      55798.795    
   1925500   1306.3077     -29265.131      0             -27914.471      55145.953    
   1926000   1296.8334     -29258.33       0             -27917.466      54557.269    
   1926500   1290.0185     -29244.416      0             -27910.599      55680.485    
   1927000   1305.2338     -29236.912      0             -27887.363      55513.518    
   1927500   1304.8339     -29257.8        0             -27908.664      54870.141    
   1928000   1301.0799     -29254.726      0             -27909.472      55439.368    
   1928500   1288.5374     -29246.745      0             -27914.459      55379.952    
   1929000   1303.2172     -29223.331      0             -27875.867      56631.801    
   1929500   1317.0325     -29232.868      0             -27871.12       55869.051    
   1930000   1279.4533     -29237.2        0             -27914.307      55394.534    
   1930500   1298.5308     -29247.141      0             -27904.523      55583.009    
   1931000   1285.0005     -29230.731      0             -27902.102      55837.956    
   1931500   1299.765      -29240.505      0             -27896.611      55984.866    
   1932000   1302.6431     -29244.03       0             -27897.16       55654.613    
   1932500   1320.6137     -29244.889      0             -27879.438      55600.337    
   1933000   1314.2988     -29253.036      0             -27894.114      55831.463    
   1933500   1319.2362     -29248.575      0             -27884.548      56055.149    
   1934000   1296.9633     -29229.16       0             -27888.162      56321.022    
   1934500   1309.5429     -29252.461      0             -27898.457      55279.949    
   1935000   1313.8347     -29238.337      0             -27879.895      56164.117    
   1935500   1303.9423     -29253.956      0             -27905.743      55024.759    
   1936000   1302.6321     -29264.98       0             -27918.121      54746.402    
   1936500   1313.9634     -29256.045      0             -27897.47       55209.764    
   1937000   1311.5447     -29240.526      0             -27884.452      55688.941    
   1937500   1322.6814     -29237.562      0             -27869.974      56189.131    
   1938000   1286.0834     -29242.656      0             -27912.908      55369.642    
   1938500   1326.7923     -29246.804      0             -27874.964      55672.07     
   1939000   1309.4695     -29259.854      0             -27905.925      55140.455    
   1939500   1302.9236     -29236.911      0             -27889.751      55705.46     
   1940000   1284.6542     -29238.238      0             -27909.967      55483.43     
   1940500   1311.8332     -29228.262      0             -27871.89       56635.51     
   1941000   1294.4839     -29245.771      0             -27907.337      55224.844    
   1941500   1308.5091     -29240.576      0             -27887.64       55817.463    
   1942000   1303.4869     -29259.121      0             -27911.378      55229.378    
   1942500   1276.1155     -29251.441      0             -27931.999      55422.205    
   1943000   1310.6543     -29248.708      0             -27893.555      55535.821    
   1943500   1324.7219     -29257.715      0             -27888.017      55392.278    
   1944000   1284.2093     -29237.86       0             -27910.049      55935.488    
   1944500   1299.3236     -29230.473      0             -27887.035      56695.966    
   1945000   1304.3153     -29262.142      0             -27913.543      55113.975    
   1945500   1318.8191     -29251.854      0             -27888.259      55546.675    
   1946000   1299.4896     -29260.994      0             -27917.385      55010.627    
   1946500   1310.8361     -29257.76       0             -27902.418      54825.169    
   1947000   1294.1805     -29232.101      0             -27893.981      56350.18     
   1947500   1302.5054     -29244.425      0             -27897.697      55739.072    
   1948000   1293.5987     -29259.166      0             -27921.647      55109.353    
   1948500   1275.8493     -29245.05       0             -27925.883      55495.462    
   1949000   1293.6434     -29251.566      0             -27914.001      55109.758    
   1949500   1303.3496     -29248.761      0             -27901.16       55325.398    
   1950000   1293.9766     -29258.175      0             -27920.266      54777.428    
   1950500   1299.7876     -29219.815      0             -27875.897      56319.866    
   1951000   1297.2462     -29239.269      0             -27897.979      56331.569    
   1951500   1305.299      -29237.464      0             -27887.848      55951.439    
   1952000   1311.9935     -29261.422      0             -27904.883      55139.053    
   1952500   1313.4272     -29250.297      0             -27892.277      55554.339    
   1953000   1306.4209     -29251.978      0             -27901.202      55688.357    
   1953500   1300.3435     -29250.09       0             -27905.598      55823.82     
   1954000   1309.9808     -29222.736      0             -27868.279      56516.345    
   1954500   1309.5258     -29249.599      0             -27895.612      55576.405    
   1955000   1291.5422     -29248.35       0             -27912.957      55586.438    
   1955500   1305.4673     -29249.937      0             -27900.146      55314.923    
   1956000   1306.6254     -29237.62       0             -27886.633      55760.74     
   1956500   1314.1312     -29252.371      0             -27893.623      55321.16     
   1957000   1316.6712     -29233.415      0             -27872.04       56400.071    
   1957500   1294.3685     -29247.594      0             -27909.279      55186.112    
   1958000   1300.0041     -29238.717      0             -27894.576      55274.22     
   1958500   1285.7741     -29237.714      0             -27908.285      55639.732    
   1959000   1320.1685     -29243.422      0             -27878.431      55878.695    
   1959500   1311.8805     -29259.415      0             -27902.994      55372.886    
   1960000   1315.0374     -29250.535      0             -27890.85       55307.03     
   1960500   1313.1227     -29252.225      0             -27894.519      55430.602    
   1961000   1304.9247     -29227.108      0             -27877.879      56213.401    
   1961500   1295.2549     -29237.529      0             -27898.297      55347.183    
   1962000   1311.4665     -29247.995      0             -27892.002      55419.6      
   1962500   1278.5265     -29257.509      0             -27935.574      55102.473    
   1963000   1294.6        -29255.048      0             -27916.494      55333.882    
   1963500   1297.945      -29239.737      0             -27897.725      56270.156    
   1964000   1299.5353     -29227.808      0             -27884.151      56238.215    
   1964500   1282.6537     -29233.434      0             -27907.232      56149.954    
   1965000   1300.4745     -29256.132      0             -27911.504      55248.404    
   1965500   1331.7175     -29240.852      0             -27863.92       55509.586    
   1966000   1299.4848     -29245.047      0             -27901.442      55425.728    
   1966500   1293.4658     -29251.902      0             -27914.52       55546.519    
   1967000   1291.5263     -29230.742      0             -27895.366      56091.358    
   1967500   1303.3174     -29257.001      0             -27909.434      54997.317    
   1968000   1296.0609     -29236.032      0             -27895.968      55631.759    
   1968500   1301.9536     -29272.114      0             -27925.957      54844.649    
   1969000   1293.3946     -29267.992      0             -27930.684      55179.46     
   1969500   1295.4839     -29254.729      0             -27915.261      54941.957    
   1970000   1319.586      -29255.91       0             -27891.522      55553.1      
   1970500   1299.5397     -29248.576      0             -27904.914      55744.206    
   1971000   1291.6882     -29250.874      0             -27915.331      55297.216    
   1971500   1293.8182     -29250.748      0             -27913.003      55731.319    
   1972000   1305.1317     -29262.904      0             -27913.461      55153.384    
   1972500   1298.5224     -29251.633      0             -27909.023      54913.657    
   1973000   1304.625      -29256.482      0             -27907.562      54769.356    
   1973500   1304.6242     -29252.903      0             -27903.985      55269.285    
   1974000   1296.6293     -29233.867      0             -27893.214      56022.621    
   1974500   1316.8551     -29249.311      0             -27887.746      55756.731    
   1975000   1295.8643     -29256.556      0             -27916.695      55106.228    
   1975500   1300.0468     -29238.79       0             -27894.604      55810.864    
   1976000   1320.1886     -29251.086      0             -27886.075      55842.294    
   1976500   1309.9109     -29237.65       0             -27883.265      55739.566    
   1977000   1309.8299     -29242.287      0             -27887.986      56186.622    
   1977500   1297.3016     -29249.645      0             -27908.297      55635.329    
   1978000   1316.6459     -29243.786      0             -27882.437      55967.509    
   1978500   1307.1229     -29254.479      0             -27902.977      55033.96     
   1979000   1289.8452     -29231.878      0             -27898.241      56247.29     
   1979500   1306.7048     -29253.791      0             -27902.721      55372.35     
   1980000   1274.4899     -29231.141      0             -27913.379      56002.792    
   1980500   1291.8307     -29261.606      0             -27925.915      54939.87     
   1981000   1297.9281     -29243.479      0             -27901.484      55769.505    
   1981500   1311.2038     -29240.834      0             -27885.112      55969.061    
   1982000   1286.6847     -29244.969      0             -27914.599      55402.975    
   1982500   1284.6112     -29239.713      0             -27911.487      55705.818    
   1983000   1298.8011     -29242.743      0             -27899.845      55706.239    
   1983500   1297.3421     -29257.41       0             -27916.021      55147.714    
   1984000   1300.9944     -29215.325      0             -27870.159      56748.303    
   1984500   1288.779      -29252.668      0             -27920.133      55109.808    
   1985000   1289.3287     -29234.956      0             -27901.853      56296.741    
   1985500   1280.3422     -29256.009      0             -27932.197      55127.709    
   1986000   1307.9344     -29247.475      0             -27895.134      55148.776    
   1986500   1293.9082     -29256.035      0             -27918.196      54954.888    
   1987000   1286.6743     -29225.853      0             -27895.494      56199.724    
   1987500   1295.7869     -29262.235      0             -27922.454      55049.406    
   1988000   1291.3504     -29257.814      0             -27922.62       55361.726    
   1988500   1289.3389     -29232.058      0             -27898.944      56026.123    
   1989000   1303.4857     -29253.346      0             -27905.604      55577.007    
   1989500   1294.517      -29241.078      0             -27902.609      55164.194    
   1990000   1298.3545     -29253.367      0             -27910.93       55607.903    
   1990500   1307.9161     -29251.207      0             -27898.885      55204.873    
   1991000   1318.0884     -29245.65       0             -27882.81       55767.047    
   1991500   1290.1654     -29227.969      0             -27894          56298.104    
   1992000   1300.2498     -29255.485      0             -27911.09       55186.253    
   1992500   1299.4352     -29247.699      0             -27904.145      55963.818    
   1993000   1297.2574     -29233.406      0             -27892.104      55993.448    
   1993500   1306.3583     -29239.353      0             -27888.641      56050.874    
   1994000   1292.4863     -29269.394      0             -27933.025      54974.799    
   1994500   1296.1333     -29242.68       0             -27902.541      55888.628    
   1995000   1296.3888     -29241.267      0             -27900.864      55671.027    
   1995500   1304.2616     -29233.736      0             -27885.192      55723.042    
   1996000   1311.5843     -29240.815      0             -27884.7        56076.825    
   1996500   1298.0563     -29266.119      0             -27923.992      54817.061    
   1997000   1296.6337     -29248.703      0             -27908.047      55747.179    
   1997500   1314.9872     -29251.521      0             -27891.887      55522.477    
   1998000   1309.8851     -29237.351      0             -27882.993      55846.863    
   1998500   1312.3776     -29222.626      0             -27865.691      56633.869    
   1999000   1302.9761     -29264.531      0             -27917.317      54611.78     
   1999500   1301.8838     -29251.498      0             -27905.412      55729.376    
   2000000   1325.4099     -29249.636      0             -27879.226      55717.787    
Loop time of 5721.48 on 10 procs for 2000000 steps with 8000 atoms

Performance: 30.202 ns/day, 0.795 hours/ns, 349.560 timesteps/s
97.6% CPU use with 10 MPI tasks x no OpenMP threads

MPI task timing breakdown:
Section |  min time  |  avg time  |  max time  |%varavg| %total
---------------------------------------------------------------
Pair    | 4778.2     | 4864.1     | 5004       | 120.1 | 85.01
Neigh   | 168.43     | 169.16     | 170.33     |   5.3 |  2.96
Comm    | 436.42     | 579.18     | 661.81     | 348.0 | 10.12
Output  | 2.3223     | 2.3304     | 2.3892     |   1.3 |  0.04
Modify  | 57.212     | 60.528     | 65.4       |  37.0 |  1.06
Other   |            | 46.2       |            |       |  0.81

Nlocal:            800 ave         829 max         775 min
Histogram: 1 1 2 0 2 0 1 2 0 1
Nghost:           4918 ave        4949 max        4890 min
Histogram: 2 0 0 2 1 2 1 1 0 1
Neighs:         101791 ave      105357 max       98621 min
Histogram: 1 0 2 2 0 2 0 2 0 1

Total # of neighbors = 1017912
Ave neighs/atom = 127.239
Neighbor list builds = 55850
Dangerous builds = 0
Total wall time: 1:35:21
