LAMMPS (23 Jun 2022 - Update 4)
# 3d vashishta

units		metal
atom_style	atomic

boundary        p p p


lattice		custom 1              a1 5.5392  0. 0.              a2 0.0 5.5392  0.0            a3 0.0 0.0 5.5392             basis 0.   0.   0.            basis 0.5  0.5  0.            basis 0.5  0.   0.5            basis 0.   0.5  0.5            basis 0.5  0.   0.             basis 0.   0.5  0.             basis 0.   0.   0.5             basis 0.5  0.5  0.5
Lattice spacing in x,y,z = 5.5392 5.5392 5.5392


region		caixa block 0 10 0 10 0 10
create_box	2 caixa
Created orthogonal box = (0 0 0) to (55.392 55.392 55.392)
  1 by 2 by 5 MPI processor grid
create_atoms	1 region caixa basis 1 1 basis 2 1 basis 3 1 basis 4 1             	  basis 5 2 basis 6 2 basis 7 2 basis 8 2
Created 8000 atoms
  using lattice units in orthogonal box = (0 0 0) to (55.392 55.392 55.392)
  create_atoms CPU = 0.001 seconds

mass		1 137.33
mass		2 15.9994

#velocity	all create 2100. 473204 dist gaussian
velocity        all create 1100. 473204 dist gaussian

group		Ba type 1
4000 atoms in group Ba
group		O type 2
4000 atoms in group O

pair_style	table linear 50000
pair_coeff	1 1 Pot_BaO Vash_11
WARNING: 23463 of 50000 force values in table Vash_11 are inconsistent with -dE/dr.
WARNING:  Should only be flagged at inflection points (../pair_table.cpp:463)
WARNING: 43814 of 50000 distance values in table 1e-06 with relative error
WARNING:  over Vash_11 to re-computed values (../pair_table.cpp:471)
pair_coeff	1 2 Pot_BaO Vash_12
WARNING: 23576 of 50000 force values in table Vash_12 are inconsistent with -dE/dr.
WARNING:  Should only be flagged at inflection points (../pair_table.cpp:463)
WARNING: 43814 of 50000 distance values in table 1e-06 with relative error
WARNING:  over Vash_12 to re-computed values (../pair_table.cpp:471)
pair_coeff	2 2 Pot_BaO Vash_22
WARNING: 23794 of 50000 force values in table Vash_22 are inconsistent with -dE/dr.
WARNING:  Should only be flagged at inflection points (../pair_table.cpp:463)
WARNING: 43814 of 50000 distance values in table 1e-06 with relative error
WARNING:  over Vash_22 to re-computed values (../pair_table.cpp:471)

timestep	0.001   #1.0 fs

thermo		500         # intervalo para mostrar output instantaneos.

neighbor	2.0 bin
neigh_modify	every 8 delay 0 check yes

restart		1000 BaO-nvt.T2100

#fix		ensemble all nve
#fix		ensemble all nvt temp 300 300 0.1 iso 0.0 0.0 0.5 drag 2.0
#fix    ensemble all nvt temp 2100 2100 0.1

fix    ensemble all nvt temp 1100 1100 0.05


run		2000000
Generated 0 of 1 mixed pair_coeff terms from geometric mixing rule
Neighbor list info ...
  update every 8 steps, delay 0 steps, check yes
  max neighbors/atom: 2000, page size: 100000
  master list distance cutoff = 11
  ghost atom cutoff = 11
  binsize = 5.5, bins = 11 11 11
  1 neighbor lists, perpetual/occasional/extra = 1 0 0
  (1) pair table, perpetual
      attributes: half, newton on
      pair build: half/bin/atomonly/newton
      stencil: half/bin/3d
      bin: standard
Per MPI rank memory allocation (min/avg/max) = 3.309 | 3.535 | 3.696 Mbytes
   Step          Temp          E_pair         E_mol          TotEng         Press     
         0   1100          -30477.63       0             -29340.283      6835.2487    
       500   1085.8247     -29386.865      0             -28264.174      48683.151    
      1000   1100.22       -29436.257      0             -28298.682      47740.153    
      1500   1102.3203     -29436.811      0             -28297.065      47256.194    
      2000   1091.5687     -29434.444      0             -28305.814      47606.59     
      2500   1091.3507     -29417.517      0             -28289.113      48028.338    
      3000   1103.4933     -29426.258      0             -28285.299      48248.799    
      3500   1110.149      -29423.014      0             -28275.174      47430.605    
      4000   1102.7013     -29445.29       0             -28305.15       47092.896    
      4500   1101.0108     -29421.894      0             -28283.502      47762.708    
      5000   1094.2701     -29415.674      0             -28284.251      47992.202    
      5500   1114.3305     -29425.114      0             -28272.95       47973.01     
      6000   1090.896      -29421.641      0             -28293.707      48070.267    
      6500   1103.285      -29410.375      0             -28269.631      48215.969    
      7000   1078.303      -29438.89       0             -28323.976      47346.3      
      7500   1107.3168     -29420.01       0             -28275.097      48412.319    
      8000   1105.4        -29424.055      0             -28281.125      48067.066    
      8500   1095.3114     -29440.766      0             -28308.267      47152.135    
      9000   1093.3638     -29402.697      0             -28272.212      48828.359    
      9500   1096.6391     -29442.565      0             -28308.693      46873.849    
     10000   1112.4363     -29431.144      0             -28280.938      47650.549    
     10500   1110.5758     -29431.077      0             -28282.795      47625.338    
     11000   1109.6479     -29412.598      0             -28265.275      48355.954    
     11500   1114.662      -29437.307      0             -28284.8        47827.59     
     12000   1099.5472     -29427.572      0             -28290.694      47828.529    
     12500   1090.624      -29429.118      0             -28301.465      47310.206    
     13000   1092.7286     -29420.153      0             -28290.324      48198.596    
     13500   1104.2329     -29428.931      0             -28287.207      48005.276    
     14000   1109.83       -29426.045      0             -28278.535      48251.989    
     14500   1098.8852     -29425.776      0             -28289.581      47492.487    
     15000   1105.8312     -29422.661      0             -28279.285      48088.81     
     15500   1101.3126     -29433.719      0             -28295.015      47706.495    
     16000   1083.6787     -29419.571      0             -28299.099      48319.464    
     16500   1097.6225     -29415.89       0             -28281.001      47944.155    
     17000   1110.1269     -29422.676      0             -28274.858      48295.906    
     17500   1105.7038     -29438.266      0             -28295.021      47429.788    
     18000   1097.4801     -29417.473      0             -28282.731      47962.599    
     18500   1094.0318     -29430.654      0             -28299.477      47269.482    
     19000   1108.2522     -29425.514      0             -28279.634      47907.13     
     19500   1129.9916     -29404.591      0             -28236.234      48721.185    
     20000   1111.1982     -29442.887      0             -28293.962      47337.809    
     20500   1117.5322     -29446.422      0             -28290.948      47315.301    
     21000   1106.828      -29427.942      0             -28283.535      47645.002    
     21500   1086.0111     -29445.24       0             -28322.357      47019.866    
     22000   1089.7206     -29449.642      0             -28322.923      46545.986    
     22500   1104.9668     -29426.439      0             -28283.957      47748.154    
     23000   1101.4414     -29422.88       0             -28284.042      47857.415    
     23500   1096.8485     -29420.333      0             -28286.244      48325.158    
     24000   1096.7476     -29442.47       0             -28308.486      46806.966    
     24500   1091.4297     -29424.06       0             -28295.574      47821.776    
     25000   1098.9467     -29409.641      0             -28273.384      48208.793    
     25500   1097.6281     -29423.364      0             -28288.469      48069.94     
     26000   1094.087      -29437.915      0             -28306.681      47178.556    
     26500   1088.895      -29421.855      0             -28295.99       47882.266    
     27000   1103.1131     -29421.004      0             -28280.438      47857.95     
     27500   1082.4809     -29421.997      0             -28302.764      48193.973    
     28000   1087.5579     -29407.635      0             -28283.153      48228.381    
     28500   1094.459      -29418.4        0             -28286.782      47721.045    
     29000   1115.3288     -29430.175      0             -28276.978      47739.706    
     29500   1098.5911     -29426.782      0             -28290.892      47703.505    
     30000   1104.9344     -29422.32       0             -28279.871      48037.506    
     30500   1094.8164     -29435.7        0             -28303.713      47136.462    
     31000   1100.7749     -29424.813      0             -28286.665      48155.074    
     31500   1104.8608     -29430.929      0             -28288.557      47684.378    
     32000   1111.2388     -29414.012      0             -28265.045      48368.444    
     32500   1079.445      -29426.217      0             -28310.123      47702.518    
     33000   1108.3983     -29428.552      0             -28282.521      47884.036    
     33500   1122.8464     -29434.059      0             -28273.089      47693.157    
     34000   1091.5583     -29403.244      0             -28274.626      48206.664    
     34500   1107.6461     -29446.366      0             -28301.113      46854.61     
     35000   1078.7669     -29431.783      0             -28316.39       47680.863    
     35500   1102.101      -29434.526      0             -28295.006      47551.615    
     36000   1110.8243     -29422.642      0             -28274.103      47991.945    
     36500   1101.42       -29445.014      0             -28306.199      47020.164    
     37000   1106.9321     -29420.588      0             -28276.073      47971.831    
     37500   1096.5262     -29446.716      0             -28312.96       46757.579    
     38000   1100.1218     -29420.664      0             -28283.191      47807.831    
     38500   1099.5473     -29403.539      0             -28266.66       48789.149    
     39000   1105.1674     -29439.24       0             -28296.55       47546.111    
     39500   1100.5151     -29418.218      0             -28280.338      47962.553    
     40000   1095.0078     -29429.718      0             -28297.533      48132.251    
     40500   1102.3554     -29429.106      0             -28289.324      48069.132    
     41000   1107.2555     -29432.914      0             -28288.065      47557        
     41500   1112.4419     -29425.093      0             -28274.882      47886.222    
     42000   1096.6652     -29410.924      0             -28277.025      48546.732    
     42500   1097.9406     -29419.937      0             -28284.72       47925.662    
     43000   1095.4324     -29399.31       0             -28266.686      48538.909    
     43500   1101.9167     -29427.998      0             -28288.669      48014.84     
     44000   1101.8132     -29432.056      0             -28292.834      47825.402    
     44500   1103.7918     -29414.707      0             -28273.439      47951.796    
     45000   1094.3721     -29431.335      0             -28299.807      47608.64     
     45500   1096.7137     -29412.938      0             -28278.988      48224.732    
     46000   1078.4582     -29434.541      0             -28319.467      47607.444    
     46500   1084.6175     -29442.05       0             -28320.608      47206.959    
     47000   1095.3461     -29415.608      0             -28283.073      48458.547    
     47500   1110.6574     -29421.976      0             -28273.609      47547.335    
     48000   1095.8263     -29428.652      0             -28295.621      47846.537    
     48500   1106.5165     -29422.898      0             -28278.813      48084.474    
     49000   1098.7993     -29424.372      0             -28288.266      48258.807    
     49500   1087.0852     -29422.595      0             -28298.601      47962.874    
     50000   1101.2554     -29408.872      0             -28270.227      48575.479    
     50500   1089.2687     -29408.844      0             -28282.592      48404.412    
     51000   1086.8899     -29421.062      0             -28297.27       48353.065    
     51500   1101.6093     -29420.032      0             -28281.021      47700.752    
     52000   1110.4143     -29428.472      0             -28280.357      47981.925    
     52500   1094.6949     -29422.336      0             -28290.474      47781.463    
     53000   1105.9818     -29416.265      0             -28272.733      48528.505    
     53500   1083.9879     -29431.905      0             -28311.113      47177.444    
     54000   1080.491      -29434.572      0             -28317.396      47480.806    
     54500   1084.3892     -29428.772      0             -28307.566      48087.358    
     55000   1097.0095     -29429.903      0             -28295.648      47403.484    
     55500   1106.0771     -29433.508      0             -28289.877      47559.707    
     56000   1102.1465     -29431.062      0             -28291.495      47766.541    
     56500   1088.5409     -29412.582      0             -28287.083      48341.609    
     57000   1088.3734     -29440.156      0             -28314.83       47059.596    
     57500   1105.4812     -29427.521      0             -28284.507      47798.442    
     58000   1114.7706     -29421.33       0             -28268.711      48005.932    
     58500   1092.0591     -29435.265      0             -28306.128      47250.061    
     59000   1092.3276     -29421.406      0             -28291.992      47558.489    
     59500   1095.9552     -29431.642      0             -28298.478      47754.087    
     60000   1106.2462     -29408.427      0             -28264.621      48754.058    
     60500   1102.9053     -29450.358      0             -28310.007      47178.623    
     61000   1100.2819     -29411.237      0             -28273.598      48157.311    
     61500   1092.2609     -29433.13       0             -28303.785      47635.318    
     62000   1103.1466     -29416.149      0             -28275.548      48020.329    
     62500   1100.1762     -29417.991      0             -28280.462      48331.149    
     63000   1102.9089     -29429.272      0             -28288.917      48033.904    
     63500   1094.1851     -29445.134      0             -28313.799      47073.526    
     64000   1115.0633     -29431.916      0             -28278.994      47817.679    
     64500   1117.7351     -29427.53       0             -28271.845      47523.555    
     65000   1104.1485     -29430.715      0             -28289.079      47462.981    
     65500   1113.8495     -29411.197      0             -28259.53       48640.744    
     66000   1105.5554     -29427.832      0             -28284.741      47667.448    
     66500   1102.8366     -29427.402      0             -28287.122      47530.543    
     67000   1099.0733     -29412.566      0             -28276.177      47885.948    
     67500   1107.3172     -29432.696      0             -28287.783      47520.817    
     68000   1115.0292     -29447.535      0             -28294.649      46851.894    
     68500   1079.5165     -29434.479      0             -28318.311      47498.867    
     69000   1107.5363     -29403.224      0             -28258.084      48538.745    
     69500   1092.123      -29419.273      0             -28290.071      48128.814    
     70000   1092.3789     -29428.194      0             -28298.727      47168.086    
     70500   1102.3808     -29414.591      0             -28274.783      48180.351    
     71000   1103.8116     -29423.516      0             -28282.228      47803.851    
     71500   1104.4059     -29426.313      0             -28284.411      47574.002    
     72000   1109.1514     -29414.982      0             -28268.173      47956.318    
     72500   1094.7817     -29425.508      0             -28293.556      47793.164    
     73000   1111.1163     -29418.308      0             -28269.467      48287.098    
     73500   1089.3173     -29431.902      0             -28305.6        47609.478    
     74000   1105.6048     -29430.201      0             -28287.059      47698.574    
     74500   1087.8855     -29421.987      0             -28297.166      47782.086    
     75000   1111.8099     -29429.818      0             -28280.26       47674.957    
     75500   1100.1437     -29423.313      0             -28285.817      47660.994    
     76000   1100.4767     -29427.435      0             -28289.595      47739.867    
     76500   1103.3465     -29436.708      0             -28295.901      47445.896    
     77000   1094.5656     -29429.15       0             -28297.421      47864.493    
     77500   1111.4048     -29413.14       0             -28264.001      48329.461    
     78000   1106.0589     -29431.114      0             -28287.502      47490.089    
     78500   1110.0687     -29409.948      0             -28262.19       47941.239    
     79000   1089.7016     -29422.338      0             -28295.639      48007.608    
     79500   1105.6626     -29396.325      0             -28253.124      48529.458    
     80000   1109.4449     -29426.206      0             -28279.093      47714.622    
     80500   1093.834      -29438.49       0             -28307.519      47181.539    
     81000   1110.3093     -29427.13       0             -28279.123      47789.521    
     81500   1104.4444     -29410.282      0             -28268.34       48562.055    
     82000   1084.3833     -29422.214      0             -28301.013      47739.46     
     82500   1100.4198     -29419.046      0             -28281.265      48118.616    
     83000   1103.044      -29419.895      0             -28279.401      47800.652    
     83500   1113.4583     -29421.204      0             -28269.941      48173.797    
     84000   1092.0285     -29414.573      0             -28285.468      48121.737    
     84500   1095.9645     -29409.519      0             -28276.344      48808.364    
     85000   1093.7525     -29434.307      0             -28303.42       47729.318    
     85500   1100.7493     -29428.949      0             -28290.827      47526.792    
     86000   1090.3179     -29436.917      0             -28309.581      47464.914    
     86500   1088.2279     -29413.23       0             -28288.055      48268.743    
     87000   1099.629      -29439.309      0             -28302.345      47257.682    
     87500   1091.5503     -29425.114      0             -28296.503      48118.575    
     88000   1089.8202     -29431.713      0             -28304.891      47718.428    
     88500   1114.3169     -29424.944      0             -28272.794      48030.487    
     89000   1100.8678     -29434.791      0             -28296.547      48232.032    
     89500   1089.4476     -29425.517      0             -28299.081      47765.591    
     90000   1097.1668     -29423.684      0             -28289.266      48204.27     
     90500   1101.356      -29436.763      0             -28298.014      47239.498    
     91000   1102.0612     -29426.514      0             -28287.036      48109.818    
     91500   1100.5142     -29424.533      0             -28286.654      48071.612    
     92000   1086.959      -29411.158      0             -28287.295      48141.44     
     92500   1118.9724     -29413.869      0             -28256.906      48104.753    
     93000   1110.3601     -29422.699      0             -28274.64       47806.951    
     93500   1088.0244     -29419.128      0             -28294.163      48201.682    
     94000   1083.1133     -29420.013      0             -28300.126      47854.784    
     94500   1095.9298     -29427.846      0             -28294.708      47853.404    
     95000   1091.7159     -29438.435      0             -28309.653      47872.713    
     95500   1095.1031     -29427.164      0             -28294.881      47264.853    
     96000   1086.0156     -29423.593      0             -28300.705      47809.013    
     96500   1095.7607     -29418.594      0             -28285.63       47908.927    
     97000   1105.9972     -29431.162      0             -28287.614      47261.247    
     97500   1094.8943     -29400.966      0             -28268.898      48610.042    
     98000   1088.7508     -29416.209      0             -28290.493      48116.338    
     98500   1087.0692     -29429.056      0             -28305.078      47697.199    
     99000   1111.7015     -29425.222      0             -28275.777      47529.238    
     99500   1096.759      -29424.48       0             -28290.484      47694.148    
    100000   1091.1536     -29424.221      0             -28296.021      47885.562    
    100500   1095.1783     -29430.322      0             -28297.96       47398.028    
    101000   1087.2341     -29419.223      0             -28295.075      48038.743    
    101500   1119.3658     -29415.607      0             -28258.236      47994.977    
    102000   1116.8654     -29439.172      0             -28284.387      47891.665    
    102500   1092.528      -29439.39       0             -28309.769      47154.997    
    103000   1096.1563     -29418.527      0             -28285.154      47990.006    
    103500   1096.0388     -29443.856      0             -28310.604      46924.113    
    104000   1087.6584     -29412.94       0             -28288.354      48317.11     
    104500   1089.3348     -29417.509      0             -28291.189      48358.661    
    105000   1100.3321     -29429.08       0             -28291.389      47423.885    
    105500   1081.059      -29418.66       0             -28300.897      47890.545    
    106000   1118.614      -29425.122      0             -28268.529      47969.521    
    106500   1096.0564     -29417.974      0             -28284.705      47764.936    
    107000   1102.894      -29420.616      0             -28280.277      47952.112    
    107500   1097.5808     -29427.917      0             -28293.071      47383.144    
    108000   1112.1451     -29431.851      0             -28281.946      47593.075    
    108500   1098.3681     -29419.679      0             -28284.019      48127.164    
    109000   1120.4732     -29428.253      0             -28269.738      47788.2      
    109500   1106.0162     -29440.895      0             -28297.327      47381.954    
    110000   1102.575      -29441.037      0             -28301.027      47553.528    
    110500   1101.5258     -29425.913      0             -28286.988      47436.61     
    111000   1097.8564     -29420.606      0             -28285.475      48116.37     
    111500   1091.3749     -29439.962      0             -28311.533      46960.849    
    112000   1085.0572     -29429.173      0             -28307.276      47818.716    
    112500   1114.9958     -29423.733      0             -28270.881      48068.273    
    113000   1108.5228     -29433.142      0             -28286.983      47440.01     
    113500   1090.1572     -29426.637      0             -28299.467      47736.521    
    114000   1105.0667     -29422.59       0             -28280.004      48246.389    
    114500   1121.4176     -29433.143      0             -28273.651      47793.041    
    115000   1089.9333     -29438.679      0             -28311.74       47282.791    
    115500   1101.8528     -29418.197      0             -28278.935      47662.577    
    116000   1094.236      -29431.174      0             -28299.786      47437.573    
    116500   1101.5113     -29415.886      0             -28276.977      48595.801    
    117000   1100.0959     -29427.095      0             -28289.649      47851.109    
    117500   1100.6792     -29415.881      0             -28277.832      47911.13     
    118000   1108.9186     -29426.724      0             -28280.156      47765.2      
    118500   1074.5476     -29426.307      0             -28315.277      47636.278    
    119000   1092.7383     -29425.134      0             -28295.295      48218.085    
    119500   1097.0012     -29424.97       0             -28290.724      48111.848    
    120000   1096.1804     -29413.691      0             -28280.293      48116.046    
    120500   1109.0316     -29426.548      0             -28279.863      47656.342    
    121000   1101.6964     -29439.93       0             -28300.829      47119.138    
    121500   1096.6504     -29412.704      0             -28278.82       47932.554    
    122000   1080.9155     -29436.316      0             -28318.702      47220.408    
    122500   1097.2676     -29420.514      0             -28285.992      47734.223    
    123000   1098.4373     -29423.337      0             -28287.605      47959.398    
    123500   1107.2433     -29427.942      0             -28283.106      47854.717    
    124000   1087.5849     -29428.601      0             -28304.091      47746.169    
    124500   1080.5384     -29429.999      0             -28312.774      47724.651    
    125000   1106.444      -29419.775      0             -28275.765      48086.35     
    125500   1090.0655     -29443.989      0             -28316.913      46948.599    
    126000   1098.7374     -29422.821      0             -28286.78       47479.24     
    126500   1090.5711     -29412.143      0             -28284.544      47966.392    
    127000   1081.6377     -29422.826      0             -28304.465      48079.985    
    127500   1094.2081     -29424.389      0             -28293.031      48174.769    
    128000   1115.3412     -29431.193      0             -28277.984      47574.592    
    128500   1103.4233     -29432.779      0             -28291.892      47819.647    
    129000   1096.0077     -29431.698      0             -28298.479      47388.012    
    129500   1104.6129     -29418.484      0             -28276.368      48301.511    
    130000   1092.7768     -29437.279      0             -28307.4        47227.832    
    130500   1115.068      -29416.044      0             -28263.117      48533.697    
    131000   1107.0036     -29400.63       0             -28256.042      48893.916    
    131500   1097.3632     -29430.139      0             -28295.518      47532.673    
    132000   1095.0178     -29423.678      0             -28291.482      47688.581    
    132500   1102.3461     -29419.516      0             -28279.743      47636.459    
    133000   1098.9944     -29428.079      0             -28291.772      47704.435    
    133500   1114.1056     -29396.983      0             -28245.051      48642.684    
    134000   1109.0956     -29424.012      0             -28277.26       47663.95     
    134500   1088.6258     -29430.993      0             -28305.406      47653.926    
    135000   1101.9464     -29417.202      0             -28277.842      48292.622    
    135500   1088.9116     -29436.959      0             -28311.077      47065.027    
    136000   1111.4725     -29412.229      0             -28263.02       48489.771    
    136500   1097.2271     -29433.133      0             -28298.652      47469.271    
    137000   1096.9525     -29416.119      0             -28281.923      48061.041    
    137500   1104.5603     -29417.499      0             -28275.437      47966.597    
    138000   1095.5579     -29415.94       0             -28283.186      48206.537    
    138500   1108.3995     -29426.882      0             -28280.85       48166.028    
    139000   1114.5691     -29430.847      0             -28278.436      47364.316    
    139500   1106.0734     -29438.735      0             -28295.108      47324.799    
    140000   1108.2622     -29418.788      0             -28272.899      48104.781    
    140500   1097.5571     -29434.913      0             -28300.092      47407.283    
    141000   1097.8188     -29431.595      0             -28296.504      47639.751    
    141500   1106.193      -29434.976      0             -28291.225      47884.69     
    142000   1096.7779     -29437.772      0             -28303.756      47276.482    
    142500   1104.6918     -29431.598      0             -28289.4        47524.251    
    143000   1095.6742     -29418.903      0             -28286.028      48364.033    
    143500   1093.2608     -29415.882      0             -28285.503      48520.92     
    144000   1117.1579     -29424.898      0             -28269.81       48358.168    
    144500   1101.9497     -29437.806      0             -28298.443      47309.55     
    145000   1110.0224     -29434.118      0             -28286.408      47847.168    
    145500   1098.5793     -29439.781      0             -28303.903      47276.206    
    146000   1093.9608     -29422.432      0             -28291.329      47637.665    
    146500   1098.4597     -29425.794      0             -28290.039      47732.133    
    147000   1088.9648     -29421.437      0             -28295.5        47906.102    
    147500   1096.3426     -29429.554      0             -28295.988      47390.34     
    148000   1101.4693     -29420.221      0             -28281.354      48281.947    
    148500   1108.0825     -29430.41       0             -28284.706      47554.563    
    149000   1101.7496     -29408.938      0             -28269.781      48734.234    
    149500   1102.1551     -29435.085      0             -28295.51       47399.241    
    150000   1092.9361     -29423.171      0             -28293.128      47818.105    
    150500   1105.5249     -29440.937      0             -28297.877      47375.012    
    151000   1090.4677     -29423.015      0             -28295.524      47761.608    
    151500   1085.68       -29428.236      0             -28305.695      47734.001    
    152000   1099.9124     -29431.094      0             -28293.837      47427.35     
    152500   1086.3079     -29420.239      0             -28297.048      48084.261    
    153000   1115.7433     -29440.108      0             -28286.483      47536.138    
    153500   1114.9757     -29417.248      0             -28264.416      48372.758    
    154000   1114.3503     -29413.485      0             -28261.301      48694.017    
    154500   1099.612      -29423.764      0             -28286.818      48090.242    
    155000   1090.2434     -29435.054      0             -28307.795      47384.573    
    155500   1104.6234     -29421.507      0             -28279.38       48355.883    
    156000   1115.6101     -29425.714      0             -28272.227      47418.93     
    156500   1091.0922     -29421.344      0             -28293.207      47975.679    
    157000   1094.9288     -29415.195      0             -28283.091      48536.7      
    157500   1103.8367     -29436.403      0             -28295.089      47386.677    
    158000   1087.4618     -29420.047      0             -28295.664      47906.866    
    158500   1100.517      -29415.882      0             -28278.001      48155.918    
    159000   1102.1085     -29422.76       0             -28283.233      47831.615    
    159500   1088.0139     -29433.488      0             -28308.534      47262.365    
    160000   1099.2136     -29413.354      0             -28276.82       48387.583    
    160500   1088.9919     -29419.759      0             -28293.794      47574.749    
    161000   1103.2734     -29405.66       0             -28264.928      48792.355    
    161500   1096.2892     -29422.964      0             -28289.454      48103.703    
    162000   1084.9538     -29450.085      0             -28328.295      46883.747    
    162500   1099.4062     -29428.799      0             -28292.066      47609.793    
    163000   1099.208      -29416.653      0             -28280.125      48188.108    
    163500   1084.1503     -29423.783      0             -28302.824      47534.765    
    164000   1086.8904     -29426.138      0             -28302.346      47954.021    
    164500   1102.2434     -29413.905      0             -28274.239      48424.199    
    165000   1108.5773     -29435.973      0             -28289.758      47294.866    
    165500   1119.2973     -29424.934      0             -28267.635      47662.164    
    166000   1096.1992     -29403.085      0             -28269.668      48429.636    
    166500   1099.0159     -29427.566      0             -28291.236      47858.798    
    167000   1082.8739     -29428.965      0             -28309.326      47964.523    
    167500   1086.939      -29426.341      0             -28302.499      47693.644    
    168000   1090.2702     -29421.701      0             -28294.414      48453.541    
    168500   1098.2217     -29415.334      0             -28279.826      48176.727    
    169000   1094.9688     -29419.467      0             -28287.322      48118.49     
    169500   1097.6256     -29427.87       0             -28292.978      47706.48     
    170000   1084.6052     -29414.212      0             -28292.782      48415.112    
    170500   1086.5652     -29428.627      0             -28305.171      47759.55     
    171000   1103.7365     -29421.73       0             -28280.519      47773.159    
    171500   1117.9145     -29437.183      0             -28281.313      47643.18     
    172000   1102.8604     -29424.418      0             -28284.114      47769.683    
    172500   1087.9937     -29420.426      0             -28295.492      48265.074    
    173000   1103.3945     -29419.69       0             -28278.833      47799.43     
    173500   1100.294      -29432.87       0             -28295.219      47247.558    
    174000   1098.8032     -29402.691      0             -28266.582      48626.212    
    174500   1094.1361     -29434.781      0             -28303.497      47860.937    
    175000   1098.5001     -29433.316      0             -28297.519      47619.463    
    175500   1091.8675     -29420.771      0             -28291.832      47717.43     
    176000   1106.9066     -29446.253      0             -28301.765      46705.378    
    176500   1099.9986     -29425.475      0             -28288.13       47433.832    
    177000   1106.9029     -29431.096      0             -28286.611      47797.485    
    177500   1084.0976     -29425.635      0             -28304.73       47476.009    
    178000   1083.0845     -29416.777      0             -28296.919      48310.378    
    178500   1113.8255     -29424.351      0             -28272.709      48242.377    
    179000   1077.5791     -29420.439      0             -28306.274      47967.435    
    179500   1101.2846     -29409.886      0             -28271.211      48344.159    
    180000   1107.7658     -29433.541      0             -28288.164      47669.986    
    180500   1103.6847     -29434.52       0             -28293.364      47943.17     
    181000   1100.2728     -29437.36       0             -28299.731      47523.378    
    181500   1116.4537     -29420.76       0             -28266.401      48127.926    
    182000   1083.0067     -29436.044      0             -28316.267      47474.275    
    182500   1108.9369     -29423.744      0             -28277.157      48002.24     
    183000   1091.0373     -29428.652      0             -28300.572      47692.463    
    183500   1110.012      -29428.969      0             -28281.27       47680.266    
    184000   1101.8452     -29424.515      0             -28285.26       47530.423    
    184500   1103.2264     -29442.852      0             -28302.169      47132.56     
    185000   1102.0845     -29413.542      0             -28274.039      48394.748    
    185500   1091.8501     -29427.897      0             -28298.976      47908.205    
    186000   1121.3188     -29423.484      0             -28264.094      47889.849    
    186500   1126.66       -29413.124      0             -28248.212      48652.664    
    187000   1101.7772     -29424.536      0             -28285.351      47837.885    
    187500   1094.2446     -29420.245      0             -28288.849      48074.523    
    188000   1112.9916     -29424.274      0             -28273.494      47823.139    
    188500   1088.2703     -29427.036      0             -28301.817      47372.637    
    189000   1099.3691     -29408.793      0             -28272.098      48477.059    
    189500   1102.0148     -29419.968      0             -28280.537      47660.663    
    190000   1079.8059     -29441.869      0             -28325.402      47052.535    
    190500   1102.7234     -29435.414      0             -28295.251      47337.519    
    191000   1116.6564     -29434.058      0             -28279.489      47715.382    
    191500   1091.824      -29436.314      0             -28307.421      47484.923    
    192000   1098.3827     -29430.192      0             -28294.517      47664.075    
    192500   1097.1115     -29425.543      0             -28291.183      47717.695    
    193000   1078.8466     -29418.089      0             -28302.614      47801.03     
    193500   1113.7186     -29430.572      0             -28279.041      48182.282    
    194000   1095.2947     -29431.64       0             -28299.158      47208.201    
    194500   1109.8898     -29412.53       0             -28264.957      48207.639    
    195000   1102.6753     -29437.266      0             -28297.153      47389.803    
    195500   1121.1121     -29411.47       0             -28252.294      48477.445    
    196000   1102.2982     -29432.569      0             -28292.845      47803.337    
    196500   1085.1974     -29420.073      0             -28298.031      48128.183    
    197000   1109.2618     -29419.597      0             -28272.673      47926.091    
    197500   1107.9983     -29423.43       0             -28277.813      47622.99     
    198000   1090.8231     -29422.868      0             -28295.01       47379.078    
    198500   1102.304      -29441.937      0             -28302.208      47429.361    
    199000   1110.9494     -29439.541      0             -28290.873      47225.147    
    199500   1093.8642     -29427.656      0             -28296.653      47827.736    
    200000   1099.9108     -29422.284      0             -28285.029      47974.418    
    200500   1098.6077     -29442.312      0             -28306.404      47042.905    
    201000   1118.6359     -29408.925      0             -28252.309      48889.824    
    201500   1085.3216     -29429.557      0             -28307.386      47416.334    
    202000   1102.3918     -29415.708      0             -28275.888      48427.445    
    202500   1108.3988     -29440.279      0             -28294.248      47878.854    
    203000   1105.6913     -29431.737      0             -28288.505      47196.396    
    203500   1093.4821     -29432.978      0             -28302.37       47178.655    
    204000   1108.2082     -29397.825      0             -28251.991      49094.358    
    204500   1097.2928     -29424.038      0             -28289.49       47272.851    
    205000   1122.4267     -29425.608      0             -28265.073      48014.95     
    205500   1095.2901     -29431.504      0             -28299.027      47716.348    
    206000   1114.9965     -29442.23       0             -28289.378      47419.754    
    206500   1102.9118     -29426.706      0             -28286.348      47750.618    
    207000   1105.228      -29411.055      0             -28268.303      48757.221    
    207500   1098.2463     -29430.953      0             -28295.419      47465.959    
    208000   1101.0273     -29420.14       0             -28281.73       48081.653    
    208500   1093.8277     -29392.901      0             -28261.936      48728.588    
    209000   1100.1693     -29439.253      0             -28301.731      47290.396    
    209500   1101.0181     -29419.007      0             -28280.608      48317.939    
    210000   1090.033      -29437.716      0             -28310.674      47270.086    
    210500   1108.5441     -29430.108      0             -28283.927      47847.85     
    211000   1097.309      -29411.272      0             -28276.708      48209.744    
    211500   1106.5434     -29418.932      0             -28274.82       47687.909    
    212000   1098.1277     -29429.186      0             -28293.775      47924.159    
    212500   1097.6311     -29419.803      0             -28284.906      47813.52     
    213000   1100.4399     -29427.51       0             -28289.708      47831.779    
    213500   1099.3651     -29425.84       0             -28289.15       47846.59     
    214000   1097.9256     -29415.919      0             -28280.717      48048.819    
    214500   1078.0351     -29426.953      0             -28312.316      47480.696    
    215000   1107.1027     -29422.959      0             -28278.268      47567.663    
    215500   1086.7229     -29422.765      0             -28299.146      47491.872    
    216000   1104.2059     -29440.309      0             -28298.613      47409.141    
    216500   1098.8199     -29428.952      0             -28292.825      47798.055    
    217000   1110.2984     -29424.239      0             -28276.244      47705.748    
    217500   1107.6268     -29404.706      0             -28259.473      48728.196    
    218000   1103.3905     -29437.137      0             -28296.285      47526.305    
    218500   1094.3157     -29430.908      0             -28299.438      47786.339    
    219000   1093.5759     -29410.34       0             -28279.635      48679.963    
    219500   1094.676      -29432.155      0             -28300.313      47784.584    
    220000   1089.7474     -29418.55       0             -28291.804      47961.667    
    220500   1097.7208     -29415.263      0             -28280.272      48284.592    
    221000   1092.6242     -29423.312      0             -28293.591      47980.521    
    221500   1116.0256     -29434.213      0             -28280.296      47794.502    
    222000   1084.8103     -29429.993      0             -28308.351      47676.18     
    222500   1117.5702     -29425.889      0             -28270.376      48146.702    
    223000   1094.5131     -29432.162      0             -28300.488      47820.499    
    223500   1106.2174     -29417.207      0             -28273.432      47860.809    
    224000   1104.8382     -29424.738      0             -28282.389      48223.673    
    224500   1097.6598     -29433.149      0             -28298.221      47609.637    
    225000   1093.9824     -29441.233      0             -28310.107      47205.062    
    225500   1097.703      -29435.726      0             -28300.754      47827.046    
    226000   1107.7943     -29413.32       0             -28267.914      48492.097    
    226500   1122.3393     -29425.147      0             -28264.702      47890.161    
    227000   1110.2147     -29423.729      0             -28275.82       48106.709    
    227500   1095.3297     -29427.79       0             -28295.272      47863.814    
    228000   1089.4495     -29425.342      0             -28298.903      48094.331    
    228500   1092.7219     -29441.4        0             -28311.578      47055.268    
    229000   1109.2856     -29418.492      0             -28271.544      48114.987    
    229500   1096.5929     -29425.262      0             -28291.438      47654.65     
    230000   1105.7209     -29418.39       0             -28275.128      47825.668    
    230500   1082.9918     -29430.693      0             -28310.931      47398.417    
    231000   1104.994      -29423.839      0             -28281.328      48042.666    
    231500   1114.6936     -29419.755      0             -28267.215      48291.149    
    232000   1093.3787     -29435.606      0             -28305.105      47569.626    
    232500   1095.0836     -29411.017      0             -28278.753      48549.889    
    233000   1091.9308     -29405.939      0             -28276.935      48384.368    
    233500   1106.1432     -29432.116      0             -28288.417      48066.668    
    234000   1093.2816     -29419.567      0             -28289.166      47635.607    
    234500   1101.1713     -29437.817      0             -28299.259      47235.789    
    235000   1097.583      -29433.679      0             -28298.831      47562.964    
    235500   1088.1828     -29427.948      0             -28302.819      47618.941    
    236000   1096.2161     -29422.047      0             -28288.612      47934.127    
    236500   1104.6607     -29419.367      0             -28277.201      47951.822    
    237000   1084.9127     -29446.093      0             -28324.346      47404.927    
    237500   1106.2746     -29435.399      0             -28291.564      47581.135    
    238000   1087.9729     -29408.16       0             -28283.249      48118.337    
    238500   1095.7816     -29424.214      0             -28291.229      47806.5      
    239000   1105.1172     -29413.684      0             -28271.046      48279.269    
    239500   1084.112      -29416.17       0             -28295.251      48186.031    
    240000   1112.5996     -29433.995      0             -28283.621      47738.766    
    240500   1085.7578     -29395.842      0             -28273.221      49025.321    
    241000   1114.5362     -29418.225      0             -28265.848      48477.308    
    241500   1100.8075     -29425.949      0             -28287.767      47960.115    
    242000   1104.7055     -29413.774      0             -28271.562      48198.793    
    242500   1087.2712     -29422.288      0             -28298.102      47744.079    
    243000   1099.4754     -29433.842      0             -28297.037      47537.296    
    243500   1104.6672     -29416.472      0             -28274.299      48224.146    
    244000   1095.0975     -29418.191      0             -28285.913      48328.323    
    244500   1095.6791     -29416.405      0             -28283.525      48014.643    
    245000   1097.9786     -29429.137      0             -28293.88       47459.156    
    245500   1094.9238     -29407.499      0             -28275.4        48174.603    
    246000   1089.1576     -29439.117      0             -28312.98       46979.785    
    246500   1102.6862     -29428.906      0             -28288.782      47551.49     
    247000   1081.5162     -29437.455      0             -28319.219      47436.23     
    247500   1117.3709     -29421.355      0             -28266.047      47970.021    
    248000   1095.3729     -29425.651      0             -28293.088      47792.821    
    248500   1111.5917     -29413.799      0             -28264.467      48403.78     
    249000   1106.6044     -29417.406      0             -28273.231      48525.535    
    249500   1113.653      -29433.556      0             -28282.093      47438.508    
    250000   1096.357      -29422.918      0             -28289.337      47945.221    
    250500   1090.7511     -29414.618      0             -28286.834      48487.386    
    251000   1107.3784     -29437.566      0             -28292.59       47500.302    
    251500   1112.1605     -29417.584      0             -28267.664      48581.661    
    252000   1095.0663     -29422.439      0             -28290.194      47826.868    
    252500   1093.9725     -29434.021      0             -28302.906      47137.067    
    253000   1091.8768     -29434.595      0             -28305.647      47333.494    
    253500   1074.5243     -29432.635      0             -28321.628      47285.216    
    254000   1101.0876     -29408.014      0             -28269.543      48589.73     
    254500   1077.7338     -29429.445      0             -28315.12       47692.777    
    255000   1114.035      -29413.958      0             -28262.1        48357.772    
    255500   1115.6309     -29417.678      0             -28264.169      47985.578    
    256000   1105.0137     -29437.076      0             -28294.545      47795.443    
    256500   1102.853      -29437.578      0             -28297.281      47052.87     
    257000   1109.2577     -29408.221      0             -28261.302      48481.952    
    257500   1075.5792     -29427.046      0             -28314.949      47589.531    
    258000   1107.7611     -29431.757      0             -28286.386      47822.667    
    258500   1086.645      -29433.699      0             -28310.16       47474.081    
    259000   1090.1093     -29417.127      0             -28290.007      48571.384    
    259500   1098.98       -29429.611      0             -28293.318      47817.558    
    260000   1109.2395     -29393.11       0             -28246.209      49557.558    
    260500   1093.7453     -29417.241      0             -28286.361      47722.694    
    261000   1104.8404     -29431.904      0             -28289.552      47405.869    
    261500   1097.9392     -29425.343      0             -28290.126      47924.688    
    262000   1090.6395     -29417.358      0             -28289.69       48005.884    
    262500   1109.1798     -29427.958      0             -28281.12       47626.833    
    263000   1090.4656     -29416.59       0             -28289.102      48377.413    
    263500   1111.3959     -29419.192      0             -28270.062      48377.469    
    264000   1108.0665     -29431.787      0             -28286.099      48058.908    
    264500   1096.5871     -29413.573      0             -28279.755      48119.558    
    265000   1091.2702     -29429.289      0             -28300.968      47540.661    
    265500   1109.4814     -29421.97       0             -28274.819      48566.397    
    266000   1098.5461     -29427.194      0             -28291.35       47633.986    
    266500   1096.2589     -29436.028      0             -28302.549      47626        
    267000   1104.4338     -29421.819      0             -28279.888      47885.823    
    267500   1097.1041     -29433.192      0             -28298.839      47785.293    
    268000   1095.1918     -29420.072      0             -28287.696      47948.619    
    268500   1113.3019     -29423.836      0             -28272.735      47874.612    
    269000   1087.6619     -29428.629      0             -28304.039      48065.22     
    269500   1106.9432     -29424.403      0             -28279.877      47698.681    
    270000   1093.0939     -29406.372      0             -28276.165      48754.972    
    270500   1102.6964     -29430.392      0             -28290.257      47825.546    
    271000   1105.3956     -29419.623      0             -28276.697      47732.807    
    271500   1092.8998     -29412.283      0             -28282.277      48154.22     
    272000   1104.2445     -29437.793      0             -28296.057      47343.715    
    272500   1102.8655     -29398.537      0             -28258.227      48783.158    
    273000   1111.1795     -29420.845      0             -28271.938      48115.955    
    273500   1105.2977     -29405.047      0             -28262.222      48657.416    
    274000   1089.865      -29438.365      0             -28311.497      47026.012    
    274500   1091.6353     -29422.142      0             -28293.443      47729.394    
    275000   1109.5073     -29429.409      0             -28282.232      47389.159    
    275500   1093.7724     -29410.018      0             -28279.11       48295.064    
    276000   1114.0402     -29447.398      0             -28295.534      47290.738    
    276500   1093.6613     -29399.855      0             -28269.062      48857.551    
    277000   1094.5715     -29432.318      0             -28300.583      47375.168    
    277500   1111.6041     -29420.924      0             -28271.579      48198.113    
    278000   1101.1013     -29424.138      0             -28285.652      47985.153    
    278500   1097.6772     -29447.197      0             -28312.251      46674.092    
    279000   1092.4921     -29435.836      0             -28306.252      47496.473    
    279500   1117.9748     -29423.989      0             -28268.057      48007.622    
    280000   1093.3517     -29423.877      0             -28293.404      47767.971    
    280500   1105.3914     -29410.628      0             -28267.706      48295.557    
    281000   1096.5175     -29421.345      0             -28287.599      47419.182    
    281500   1103.4847     -29414.097      0             -28273.147      48265.861    
    282000   1079.7163     -29421.519      0             -28305.145      47854.173    
    282500   1111.7323     -29425.197      0             -28275.72       47874.326    
    283000   1085.3376     -29422.122      0             -28299.935      48070.54     
    283500   1104.6673     -29418.311      0             -28276.138      47991.59     
    284000   1098.8927     -29428.446      0             -28292.243      47757.484    
    284500   1095.4633     -29423.044      0             -28290.388      47938.112    
    285000   1078.1537     -29421.42       0             -28306.661      47517.183    
    285500   1110.3319     -29420.704      0             -28272.674      48315.623    
    286000   1087.689      -29420.316      0             -28295.697      47603.666    
    286500   1093.0315     -29404.699      0             -28274.557      48644.199    
    287000   1114.4283     -29425.56       0             -28273.294      48028.954    
    287500   1092.306      -29422.376      0             -28292.984      47762.075    
    288000   1100.3455     -29424.722      0             -28287.018      47961.337    
    288500   1080.8619     -29413.54       0             -28295.981      48187.776    
    289000   1079.1751     -29418.449      0             -28302.634      48044.526    
    289500   1091.1989     -29413.085      0             -28284.838      47937.07     
    290000   1104.2636     -29430.444      0             -28288.688      47968.35     
    290500   1088.7405     -29416.722      0             -28291.017      47866.378    
    291000   1108.0791     -29435.714      0             -28290.013      47280.705    
    291500   1116.2203     -29427.414      0             -28273.296      47447.913    
    292000   1108.5197     -29421.693      0             -28275.537      48030.155    
    292500   1103.4122     -29445.905      0             -28305.03       46977.435    
    293000   1118.7537     -29418.774      0             -28262.036      48097.706    
    293500   1092.052      -29408.649      0             -28279.52       48536.817    
    294000   1098.4489     -29435.824      0             -28300.081      47840.453    
    294500   1090.5118     -29417.172      0             -28289.636      48309.396    
    295000   1108.4769     -29421.296      0             -28275.185      47915.424    
    295500   1085.0853     -29430.746      0             -28308.82       47423.564    
    296000   1115.8125     -29431.084      0             -28277.387      47853.053    
    296500   1093.1094     -29420.275      0             -28290.052      48319.897    
    297000   1096.6799     -29417.711      0             -28283.797      47895.56     
    297500   1108.952      -29435.206      0             -28288.603      47338.423    
    298000   1104.2774     -29414.096      0             -28272.327      47864.443    
    298500   1090.5033     -29437.217      0             -28309.689      47088.881    
    299000   1082.0893     -29434.683      0             -28315.854      47095.759    
    299500   1110.2177     -29437.438      0             -28289.526      47424.003    
    300000   1104.4229     -29433.358      0             -28291.438      47523.456    
    300500   1101.0059     -29422.95       0             -28284.563      47731.979    
    301000   1089.1129     -29426.83       0             -28300.739      47768.697    
    301500   1102.7124     -29432.757      0             -28292.605      48063.863    
    302000   1108.4825     -29408.628      0             -28262.511      48568.246    
    302500   1095.4101     -29429.785      0             -28297.184      47733.764    
    303000   1119.6071     -29417.985      0             -28260.365      48146.834    
    303500   1098.005      -29432.412      0             -28297.127      47464.84     
    304000   1091.1364     -29409.096      0             -28280.914      48466.493    
    304500   1103.2233     -29426.107      0             -28285.427      48035.767    
    305000   1101.2265     -29426.632      0             -28288.017      47816.546    
    305500   1096.9953     -29436.935      0             -28302.694      47296.92     
    306000   1087.4349     -29412.272      0             -28287.917      48228.551    
    306500   1097.8627     -29427.417      0             -28292.28       47778.688    
    307000   1099.1536     -29425.356      0             -28288.884      47825.619    
    307500   1087.2199     -29423.729      0             -28299.596      48006.977    
    308000   1110.6191     -29423.426      0             -28275.099      47786.311    
    308500   1094.856      -29411.387      0             -28279.358      48617.316    
    309000   1089.3192     -29410.126      0             -28283.822      48020.33     
    309500   1109.5528     -29417.954      0             -28270.729      48105.328    
    310000   1105.9545     -29425.609      0             -28282.105      47682.618    
    310500   1094.8595     -29435.149      0             -28303.117      47238.502    
    311000   1100.1711     -29420.574      0             -28283.05       47898.245    
    311500   1089.1945     -29430.312      0             -28304.138      47448.13     
    312000   1099.4265     -29431.787      0             -28295.033      47520.622    
    312500   1108.245      -29412.809      0             -28266.937      48543.383    
    313000   1093.5964     -29414.873      0             -28284.146      47741.746    
    313500   1084.797      -29420.614      0             -28298.986      48122.478    
    314000   1113.5806     -29425.353      0             -28273.965      48112.829    
    314500   1093.9858     -29418.292      0             -28287.163      48235.691    
    315000   1110.2704     -29415.217      0             -28267.251      48364.234    
    315500   1107.7346     -29436.15       0             -28290.805      47764.76     
    316000   1114.0036     -29431.215      0             -28279.389      47965.451    
    316500   1096.2596     -29421.032      0             -28287.553      48125.74     
    317000   1101.5589     -29418.449      0             -28279.49       48359.068    
    317500   1090.0958     -29437.2        0             -28310.094      47475.807    
    318000   1105.7744     -29406.488      0             -28263.171      48600.67     
    318500   1099.2447     -29420.02       0             -28283.454      48226.884    
    319000   1110.094      -29424.692      0             -28276.908      47837.01     
    319500   1070.217      -29439.56       0             -28333.007      47020.651    
    320000   1109.2421     -29431.001      0             -28284.098      47250.756    
    320500   1109.9902     -29460.301      0             -28312.625      46630.264    
    321000   1085.9983     -29429.067      0             -28306.197      47576.524    
    321500   1102.019      -29429.068      0             -28289.633      47744.445    
    322000   1090.3374     -29417.949      0             -28290.593      47748.682    
    322500   1103.7945     -29431.614      0             -28290.343      47714.703    
    323000   1108.3191     -29440.088      0             -28294.139      47275.135    
    323500   1105.2103     -29436.8        0             -28294.066      47250.982    
    324000   1100.3279     -29427.669      0             -28289.983      47661.831    
    324500   1096.7221     -29426.174      0             -28292.216      47705.848    
    325000   1098.196      -29442.694      0             -28307.212      47375.86     
    325500   1094.2754     -29398.231      0             -28266.803      48915.348    
    326000   1085.6023     -29429.245      0             -28306.784      47797.992    
    326500   1107.4049     -29431.953      0             -28286.95       47605.094    
    327000   1096.9163     -29431.563      0             -28297.404      47448.391    
    327500   1114.5875     -29414.561      0             -28262.131      48007.98     
    328000   1098.1796     -29429.41       0             -28293.945      47358.881    
    328500   1092.3706     -29427.069      0             -28297.61       47937.601    
    329000   1089.1291     -29410.341      0             -28284.234      48144.887    
    329500   1119.496      -29424.354      0             -28266.848      47956.197    
    330000   1092.3058     -29427.298      0             -28297.907      47671.259    
    330500   1100.6013     -29424.114      0             -28286.145      47438.873    
    331000   1099.9316     -29413.339      0             -28276.063      47814.055    
    331500   1085.3619     -29421.875      0             -28299.663      47915.845    
    332000   1099.8352     -29410.183      0             -28273.006      48244.246    
    332500   1101.729      -29423.443      0             -28284.308      47846.11     
    333000   1096.0387     -29410.373      0             -28277.121      48559.324    
    333500   1107.9432     -29422.871      0             -28277.311      47984.374    
    334000   1089.3249     -29418.482      0             -28292.172      48136.817    
    334500   1108.5877     -29416.726      0             -28270.5        48177.942    
    335000   1082.9458     -29421.613      0             -28301.899      47790.88     
    335500   1098.6432     -29412.623      0             -28276.679      47773.306    
    336000   1099.0477     -29434.88       0             -28298.518      47712.042    
    336500   1115.4819     -29425.094      0             -28271.739      48213.463    
    337000   1103.8419     -29440.474      0             -28299.154      47479.333    
    337500   1108.8628     -29412.901      0             -28266.391      48341.135    
    338000   1084.4661     -29425.702      0             -28304.416      47639.904    
    338500   1100.3604     -29428.917      0             -28291.197      47430.553    
    339000   1101.1012     -29444.374      0             -28305.888      47041.357    
    339500   1096.0904     -29423.375      0             -28290.071      47857.891    
    340000   1104.9681     -29425.601      0             -28283.117      48288.608    
    340500   1092.007      -29412.296      0             -28283.213      48148.921    
    341000   1123.5476     -29425.879      0             -28264.185      48345.838    
    341500   1095.1263     -29429.699      0             -28297.391      47341.532    
    342000   1114.3886     -29426.896      0             -28274.672      48366.794    
    342500   1099.7873     -29415.672      0             -28278.544      48380.035    
    343000   1094.7515     -29435.475      0             -28303.555      47107.338    
    343500   1106.3248     -29420.096      0             -28276.209      48675.319    
    344000   1101.7701     -29416.288      0             -28277.111      48453.713    
    344500   1101.3209     -29446.359      0             -28307.646      46877.372    
    345000   1101.9839     -29427.762      0             -28288.364      48094.715    
    345500   1096.0691     -29427.063      0             -28293.781      47575.412    
    346000   1109.545      -29420.39       0             -28273.173      48072.222    
    346500   1086.3904     -29428.592      0             -28305.317      47294.152    
    347000   1087.5589     -29426.757      0             -28302.273      47952.558    
    347500   1122.4042     -29430.947      0             -28270.435      48121.143    
    348000   1107.4098     -29424.18       0             -28279.172      47729.187    
    348500   1135.2926     -29422.935      0             -28249.097      47983.371    
    349000   1077.1386     -29425.321      0             -28311.611      47429.514    
    349500   1089.8761     -29417.413      0             -28290.534      47992.058    
    350000   1108.8155     -29429.961      0             -28283.499      47554.131    
    350500   1082.1606     -29450.775      0             -28331.873      46645.321    
    351000   1098.7721     -29414.09       0             -28278.013      48275.503    
    351500   1100.819      -29415.857      0             -28277.663      47867.68     
    352000   1110.6674     -29411.525      0             -28263.149      48753.629    
    352500   1095.9554     -29431.756      0             -28298.591      47482.33     
    353000   1104.5653     -29414.161      0             -28272.093      48135.889    
    353500   1079.4278     -29407.792      0             -28291.715      47982.991    
    354000   1093.7817     -29427.909      0             -28296.991      47704.954    
    354500   1115.4526     -29429.175      0             -28275.85       48123.455    
    355000   1078.4348     -29434.028      0             -28318.978      47328.005    
    355500   1106.5995     -29421.598      0             -28277.428      48101.624    
    356000   1096.8421     -29435.387      0             -28301.305      47358.519    
    356500   1091.0856     -29442.096      0             -28313.966      47194.491    
    357000   1094.7921     -29430.28       0             -28298.317      47606.722    
    357500   1099.1628     -29415.44       0             -28278.959      47971.48     
    358000   1090.6212     -29428.925      0             -28301.275      47742.622    
    358500   1095.9542     -29413.859      0             -28280.695      48278.419    
    359000   1095.4113     -29412.511      0             -28279.908      48113.149    
    359500   1096.0502     -29424.644      0             -28291.38       48195.765    
    360000   1105.2174     -29417.23       0             -28274.488      47788.089    
    360500   1088.0915     -29421.918      0             -28296.884      47782.06     
    361000   1106.1318     -29413.442      0             -28269.755      48394.699    
    361500   1079.7776     -29445.397      0             -28328.959      47215.658    
    362000   1106.2189     -29419.189      0             -28275.412      48066.957    
    362500   1111.4172     -29411.116      0             -28261.964      48284.385    
    363000   1100.5461     -29441.142      0             -28303.23       47453.104    
    363500   1107.664      -29413.258      0             -28267.987      48520.922    
    364000   1094.7935     -29423.422      0             -28291.458      47890.487    
    364500   1111.0545     -29428.849      0             -28280.072      47708.243    
    365000   1093.3712     -29431.254      0             -28300.761      46938.386    
    365500   1097.5658     -29443.674      0             -28308.844      47089.106    
    366000   1120.9688     -29425.272      0             -28266.244      47739.79     
    366500   1094.4791     -29415.388      0             -28283.749      47766.347    
    367000   1098.1383     -29427.564      0             -28292.141      47753.354    
    367500   1089.628      -29420.983      0             -28294.36       47856.592    
    368000   1081.1601     -29427.704      0             -28309.837      47394.697    
    368500   1083.0675     -29443.582      0             -28323.743      46722.142    
    369000   1102.9841     -29417.152      0             -28276.719      48437.307    
    369500   1109.9642     -29412.494      0             -28264.844      48069.472    
    370000   1096.1225     -29428.532      0             -28295.194      47849.861    
    370500   1105.9758     -29429.942      0             -28286.417      47606.124    
    371000   1103.4156     -29428.099      0             -28287.22       47594.193    
    371500   1065.0475     -29414.376      0             -28313.168      48145.644    
    372000   1106.3411     -29421.797      0             -28277.894      48374.31     
    372500   1111.0765     -29437.997      0             -28289.198      47236.625    
    373000   1096.8635     -29415.941      0             -28281.837      47991.651    
    373500   1098.6091     -29415.339      0             -28279.43       48197.576    
    374000   1099.3114     -29413.779      0             -28277.144      48144.012    
    374500   1101.8479     -29408.871      0             -28269.613      48223.496    
    375000   1103.5986     -29442.039      0             -28300.972      47508.397    
    375500   1096.154      -29419.603      0             -28286.233      48411.179    
    376000   1102.4582     -29429.675      0             -28289.786      47699.425    
    376500   1087.9695     -29450.331      0             -28325.423      46966.392    
    377000   1101.2096     -29414.047      0             -28275.449      48338.829    
    377500   1082.8421     -29442.047      0             -28322.44       47085.044    
    378000   1092.807      -29435.353      0             -28305.443      47298.716    
    378500   1097.2605     -29419.043      0             -28284.529      48023.997    
    379000   1103.5599     -29428.676      0             -28287.648      47827.152    
    379500   1094.4806     -29424.798      0             -28293.157      47890.273    
    380000   1082.4011     -29423.918      0             -28304.768      47952.856    
    380500   1090.551      -29440.887      0             -28313.31       47277.738    
    381000   1095.6773     -29420.028      0             -28287.15       48166.854    
    381500   1105.408      -29429.558      0             -28286.619      47681.52     
    382000   1103.8229     -29423.183      0             -28281.884      48016.176    
    382500   1106.4295     -29423.408      0             -28279.413      47753.706    
    383000   1107.2999     -29435.075      0             -28290.18       47248.229    
    383500   1102.5348     -29420.703      0             -28280.735      48274.854    
    384000   1110.7351     -29437.537      0             -28289.09       46969.289    
    384500   1099.4219     -29414.801      0             -28278.052      48093.827    
    385000   1105.7364     -29435.648      0             -28292.369      47901.535    
    385500   1101.5714     -29435.44       0             -28296.468      47525.09     
    386000   1082.893      -29425.748      0             -28306.088      47781.857    
    386500   1091.6244     -29415.528      0             -28286.841      47940.672    
    387000   1099.8504     -29423.131      0             -28285.938      47938.539    
    387500   1099.8145     -29432.455      0             -28295.299      47529.979    
    388000   1095.2923     -29432.798      0             -28300.318      47787.615    
    388500   1099.1304     -29403.007      0             -28266.559      48585.261    
    389000   1094.7721     -29435.341      0             -28303.399      47656.651    
    389500   1094.7956     -29425.036      0             -28293.07       47875.283    
    390000   1109.1583     -29419.554      0             -28272.737      48087.718    
    390500   1111.3641     -29428.775      0             -28279.678      47880.805    
    391000   1084.8223     -29430.017      0             -28308.363      47485.706    
    391500   1112.6785     -29431.009      0             -28280.553      47723.191    
    392000   1097.606      -29427.256      0             -28292.384      47560.989    
    392500   1118.5059     -29419.062      0             -28262.58       48247.772    
    393000   1102.5313     -29438.409      0             -28298.445      47092.403    
    393500   1107.8582     -29425.065      0             -28279.593      47560.286    
    394000   1095.5216     -29426.118      0             -28293.402      47429.598    
    394500   1117.9072     -29426.839      0             -28270.976      48195.318    
    395000   1085.7914     -29427.936      0             -28305.28       47528.411    
    395500   1104.8429     -29423.059      0             -28280.705      47982.755    
    396000   1083.1132     -29439.64       0             -28319.753      47354.49     
    396500   1099.7848     -29419.514      0             -28282.389      47820.177    
    397000   1093.995      -29434.145      0             -28303.007      47882.347    
    397500   1105.8427     -29435.055      0             -28291.667      47524.637    
    398000   1098.6733     -29436.15       0             -28300.174      47480.503    
    398500   1110.3605     -29424.775      0             -28276.716      47641.77     
    399000   1093.1894     -29406.325      0             -28276.02       48567.948    
    399500   1091.4028     -29443.092      0             -28314.634      47383.663    
    400000   1107.5143     -29426.868      0             -28281.751      47855.395    
    400500   1076.9741     -29411.127      0             -28297.587      48240.972    
    401000   1102.9774     -29445.204      0             -28304.779      47280.579    
    401500   1098.6382     -29410.752      0             -28274.813      48195.654    
    402000   1101.9823     -29423.237      0             -28283.84       47977.092    
    402500   1094.4414     -29428.397      0             -28296.797      47389.266    
    403000   1112.3218     -29410.226      0             -28260.139      48615.487    
    403500   1097.3221     -29431.098      0             -28296.52       47705.352    
    404000   1090.8327     -29415.568      0             -28287.699      48295.898    
    404500   1101.3526     -29434.904      0             -28296.159      47677.304    
    405000   1098.3049     -29416.003      0             -28280.409      47792.312    
    405500   1096.5383     -29422.798      0             -28289.03       47698.068    
    406000   1112.5819     -29435.004      0             -28284.648      47525.596    
    406500   1095.2395     -29442.949      0             -28310.524      47053.413    
    407000   1096.2597     -29415.478      0             -28281.999      48137.563    
    407500   1097.7344     -29438.41       0             -28303.405      47005.157    
    408000   1097.3795     -29429.985      0             -28295.348      47451.619    
    408500   1079.8792     -29427.743      0             -28311.199      47397.53     
    409000   1100.2099     -29424.18       0             -28286.616      47521.797    
    409500   1099.216      -29446.446      0             -28309.91       46553.557    
    410000   1112.6985     -29429.29       0             -28278.814      47350.11     
    410500   1099.4703     -29432.299      0             -28295.5        47638.391    
    411000   1109.0232     -29424.668      0             -28277.991      47850.468    
    411500   1093.8604     -29433.571      0             -28302.572      47568.639    
    412000   1098.8874     -29416.937      0             -28280.74       48563.135    
    412500   1081.3567     -29414.411      0             -28296.34       48126.092    
    413000   1101.4832     -29422.076      0             -28283.195      47993.712    
    413500   1108.2239     -29431.211      0             -28285.361      47747.722    
    414000   1105.7752     -29421.409      0             -28278.09       47813.465    
    414500   1111.398      -29429.566      0             -28280.434      47567.785    
    415000   1107.9058     -29439.799      0             -28294.278      47281.958    
    415500   1104.8756     -29425.095      0             -28282.706      47738.246    
    416000   1105.2563     -29427.074      0             -28284.292      47814.979    
    416500   1101.8524     -29429.923      0             -28290.66       47146.842    
    417000   1105.6736     -29429.58       0             -28286.367      47934.677    
    417500   1078.5625     -29435.733      0             -28320.551      47428.414    
    418000   1087.67       -29419.414      0             -28294.815      47745.4      
    418500   1073.7601     -29424.246      0             -28314.03       47629.021    
    419000   1102.0087     -29429.732      0             -28290.308      47648.646    
    419500   1095.238      -29412.901      0             -28280.478      48156.183    
    420000   1091.0615     -29432.559      0             -28304.454      47615.972    
    420500   1115.3363     -29418.838      0             -28265.634      48136.705    
    421000   1114.3242     -29428.138      0             -28275.98       47894.557    
    421500   1090.5392     -29445.161      0             -28317.596      47125.717    
    422000   1097.284      -29421.411      0             -28286.872      48072.028    
    422500   1094.7216     -29426.096      0             -28294.207      47535.367    
    423000   1099.2444     -29434.027      0             -28297.461      47108.437    
    423500   1090.6806     -29435.319      0             -28307.608      47486.954    
    424000   1102.4078     -29438.35       0             -28298.513      47307.426    
    424500   1093.3681     -29426.417      0             -28295.927      47954.301    
    425000   1097.9333     -29427.598      0             -28292.388      47632.364    
    425500   1099.2054     -29434.383      0             -28297.857      47517.7      
    426000   1114.0208     -29423.985      0             -28272.141      48031.925    
    426500   1085.3238     -29422.383      0             -28300.211      47414.17     
    427000   1088.3393     -29439.453      0             -28314.163      47250.206    
    427500   1088.9251     -29420.905      0             -28295.009      47777.899    
    428000   1087.2293     -29426.168      0             -28302.025      47466.249    
    428500   1104.0488     -29430.667      0             -28289.133      47514.722    
    429000   1101.3209     -29435.118      0             -28296.405      47677.692    
    429500   1080.9296     -29432.678      0             -28315.049      47871.747    
    430000   1108.3118     -29423.798      0             -28277.856      47972.082    
    430500   1111.9775     -29432.327      0             -28282.595      47774.868    
    431000   1095.1837     -29435.17       0             -28302.802      47268.901    
    431500   1072.9703     -29415.598      0             -28306.198      47601.803    
    432000   1098.4263     -29417.769      0             -28282.049      48310.6      
    432500   1117.883      -29421.684      0             -28265.847      47762.607    
    433000   1081.9744     -29426.904      0             -28308.195      47713.431    
    433500   1106.6776     -29450.157      0             -28305.906      46962.077    
    434000   1089.3554     -29421.152      0             -28294.811      47528.495    
    434500   1086.1723     -29438.517      0             -28315.467      47033.516    
    435000   1097.596      -29420.609      0             -28285.748      47371.664    
    435500   1105.1008     -29428.524      0             -28285.903      47960.142    
    436000   1087.5073     -29439.772      0             -28315.342      47129.77     
    436500   1083.6163     -29420.13       0             -28299.723      47969.018    
    437000   1106.9057     -29445.638      0             -28301.151      47135.228    
    437500   1098.2994     -29415.8        0             -28280.211      48072.907    
    438000   1122.2346     -29406.624      0             -28246.287      49076.412    
    438500   1107.6846     -29431.136      0             -28285.843      47614.385    
    439000   1102.6262     -29417.036      0             -28276.974      48424.568    
    439500   1105.1782     -29445.031      0             -28302.33       47440.2      
    440000   1111.7523     -29417.947      0             -28268.449      47939.343    
    440500   1093.6394     -29429.419      0             -28298.648      47666.628    
[...]
   1892500   1107.7489     -29424.862      0             -28279.502      47605.357    
   1893000   1094.9818     -29425.208      0             -28293.05       47799.529    
   1893500   1095.5285     -29420.853      0             -28288.129      48085.696    
   1894000   1096.1074     -29422.552      0             -28289.229      48046.566    
   1894500   1103.512      -29420.526      0             -28279.548      48140.218    
   1895000   1112.8826     -29429.639      0             -28278.972      47956.973    
   1895500   1083.3597     -29426.667      0             -28306.525      47636.339    
   1896000   1098.8037     -29425.864      0             -28289.754      48046.438    
   1896500   1085.0874     -29423.873      0             -28301.945      47588.44     
   1897000   1106.785      -29436.889      0             -28292.527      47418.994    
   1897500   1110.6475     -29412.802      0             -28264.445      47983.642    
   1898000   1086.8365     -29420.577      0             -28296.841      47881.922    
   1898500   1098.7572     -29425.846      0             -28289.783      47661.374    
   1899000   1111.4133     -29432.098      0             -28282.95       47822.629    
   1899500   1094.8056     -29440.488      0             -28308.511      47408.641    
   1900000   1111.3099     -29429.969      0             -28280.928      47808.494    
   1900500   1106.3319     -29428.386      0             -28284.492      47500.834    
   1901000   1096.1654     -29422.616      0             -28289.234      48002.554    
   1901500   1076.8449     -29417.301      0             -28303.895      48110.695    
   1902000   1103.5484     -29424.276      0             -28283.26       47692.762    
   1902500   1088.7477     -29427.026      0             -28301.313      47765.691    
   1903000   1110.0829     -29398.519      0             -28250.747      48874.535    
   1903500   1089.646      -29428.489      0             -28301.848      47256.571    
   1904000   1099.805      -29433.066      0             -28295.921      47905.827    
   1904500   1110.7555     -29426.219      0             -28277.751      48179.716    
   1905000   1082.1566     -29440.407      0             -28321.509      46833.843    
   1905500   1116.284      -29433.128      0             -28278.944      47754.686    
   1906000   1102.8627     -29404.578      0             -28264.271      48574.78     
   1906500   1099.9073     -29434.038      0             -28296.787      47767.82     
   1907000   1090.9056     -29426.813      0             -28298.87       47766.57     
   1907500   1112.8923     -29418.473      0             -28267.795      48069.79     
   1908000   1075.1518     -29442.095      0             -28330.439      46989.329    
   1908500   1104.7401     -29432.706      0             -28290.458      47566.979    
   1909000   1102.1633     -29428.31       0             -28288.726      47840.857    
   1909500   1093.2236     -29407.481      0             -28277.14       48427.239    
   1910000   1101.893      -29405.434      0             -28266.13       48313.25     
   1910500   1106.4373     -29412.96       0             -28268.957      48384.743    
   1911000   1095.7717     -29408.252      0             -28275.277      48958.821    
   1911500   1100.8249     -29436.672      0             -28298.472      47019.951    
   1912000   1097.2318     -29428.847      0             -28294.362      47405.473    
   1912500   1103.7682     -29422.009      0             -28280.766      47868.204    
   1913000   1108.6055     -29422.751      0             -28276.506      47737.502    
   1913500   1109.5398     -29425.714      0             -28278.503      48089.8      
   1914000   1110.9449     -29425.352      0             -28276.688      47875.075    
   1914500   1085.0567     -29418.58       0             -28296.684      47875.728    
   1915000   1091.2493     -29426.224      0             -28297.925      48004.287    
   1915500   1107.8358     -29432.513      0             -28287.064      47428.242    
   1916000   1101.0464     -29431.842      0             -28293.413      47778.775    
   1916500   1114.7835     -29414.017      0             -28261.384      48086.626    
   1917000   1106.61       -29425.583      0             -28281.401      47882.751    
   1917500   1099.6662     -29412.171      0             -28275.169      48323.878    
   1918000   1087.3988     -29430.63       0             -28306.312      47661.76     
   1918500   1099.8523     -29418.127      0             -28280.932      47733.867    
   1919000   1103.2549     -29426.665      0             -28285.952      47663.697    
   1919500   1101.0341     -29422.652      0             -28284.236      47693.466    
   1920000   1099.2986     -29436.043      0             -28299.421      47761.203    
   1920500   1095.737      -29414.944      0             -28282.004      48297.957    
   1921000   1101.2439     -29430.403      0             -28291.77       47623.957    
   1921500   1096.9293     -29437.083      0             -28302.91       47081.658    
   1922000   1105.6278     -29426.228      0             -28283.062      47542.053    
   1922500   1096.7724     -29416.131      0             -28282.121      47916.206    
   1923000   1112.5227     -29422.137      0             -28271.842      48152.544    
   1923500   1098.6198     -29417.556      0             -28281.636      48141.318    
   1924000   1100.4991     -29441.754      0             -28303.891      47305.702    
   1924500   1105.9268     -29426.969      0             -28283.494      47282.011    
   1925000   1100.1689     -29433.366      0             -28295.844      47404.205    
   1925500   1088.8234     -29428.457      0             -28302.666      47462.063    
   1926000   1102.0634     -29428.309      0             -28288.828      47639.419    
   1926500   1110.6482     -29429.103      0             -28280.747      48027.495    
   1927000   1104.8284     -29441.722      0             -28299.383      47024.226    
   1927500   1108.6756     -29422.046      0             -28275.728      47853.487    
   1928000   1100.0679     -29419.215      0             -28281.798      47859.937    
   1928500   1085.4797     -29427.933      0             -28305.599      47827.975    
   1929000   1096.4806     -29418.842      0             -28285.134      48068.067    
   1929500   1087.3173     -29429.27       0             -28305.037      47560.331    
   1930000   1094.333      -29423.297      0             -28291.809      47701.77     
   1930500   1104.3353     -29421.702      0             -28279.872      47914.716    
   1931000   1111.2248     -29439.132      0             -28290.179      47347.721    
   1931500   1090.5679     -29444.694      0             -28317.099      47027.427    
   1932000   1090.8861     -29400.772      0             -28272.849      48714.152    
   1932500   1087.4856     -29421.938      0             -28297.53       47863.158    
   1933000   1110.7927     -29426.274      0             -28277.768      47278.566    
   1933500   1087.826      -29426.56       0             -28301.8        47555.162    
   1934000   1085.2241     -29423.715      0             -28301.645      47560.407    
   1934500   1101.9925     -29423.567      0             -28284.16       47893.601    
   1935000   1107.1653     -29431.047      0             -28286.291      47416.054    
   1935500   1104.7934     -29432.654      0             -28290.35       47396.83     
   1936000   1081.552      -29414.701      0             -28296.428      48189.074    
   1936500   1097.7823     -29422.255      0             -28287.201      48176.725    
   1937000   1099.367      -29430.118      0             -28293.425      47546.29     
   1937500   1114.2824     -29410.767      0             -28258.652      48474.795    
   1938000   1096.0145     -29426.586      0             -28293.36       47927.286    
   1938500   1116.9331     -29425.268      0             -28270.413      47967.627    
   1939000   1099.2871     -29427.662      0             -28291.052      47754.329    
   1939500   1101.0366     -29417.838      0             -28279.419      48398.223    
   1940000   1096.7076     -29426.615      0             -28292.673      47923.269    
   1940500   1115.7931     -29430.025      0             -28276.349      48087.314    
   1941000   1103.1386     -29431.63       0             -28291.038      48043.593    
   1941500   1097.2735     -29434.569      0             -28300.041      47508.295    
   1942000   1094.5933     -29425.708      0             -28293.951      47875.712    
   1942500   1099.5786     -29399.711      0             -28262.799      49050.075    
   1943000   1090.0817     -29423.621      0             -28296.528      47844.444    
   1943500   1115.1191     -29425.809      0             -28272.829      48140.972    
   1944000   1088.198      -29426.995      0             -28301.851      47724.609    
   1944500   1087.5275     -29414.767      0             -28290.315      47829.317    
   1945000   1091.9742     -29426.196      0             -28297.147      47863.54     
   1945500   1092.8636     -29417.285      0             -28287.316      48210.41     
   1946000   1116.837      -29433.681      0             -28278.925      47585.513    
   1946500   1084.5117     -29404.619      0             -28283.286      48497.428    
   1947000   1109.6023     -29441.5        0             -28294.224      47019.417    
   1947500   1107.9853     -29423.287      0             -28277.684      48194.465    
   1948000   1106.4646     -29426.161      0             -28282.13       47819.183    
   1948500   1071.272      -29437.758      0             -28330.115      47109.461    
   1949000   1102.9648     -29420.814      0             -28280.402      48045.907    
   1949500   1100.5063     -29425.538      0             -28287.667      47802.81     
   1950000   1102.5429     -29413.324      0             -28273.347      48208.835    
   1950500   1106.6238     -29418.861      0             -28274.665      48204.114    
   1951000   1128.3936     -29421.7        0             -28254.995      48005.753    
   1951500   1093.6223     -29428.676      0             -28297.923      47713.702    
   1952000   1096.5729     -29426.39       0             -28292.586      47983.089    
   1952500   1107.3043     -29424.395      0             -28279.496      47958.01     
   1953000   1110.5921     -29439.091      0             -28290.792      47279.661    
   1953500   1074.8221     -29429.878      0             -28318.564      47481.585    
   1954000   1093.8404     -29423.915      0             -28292.937      47991.106    
   1954500   1110.4959     -29421.289      0             -28273.09       48205.479    
   1955000   1095.0843     -29432.666      0             -28300.402      47572.839    
   1955500   1109.352      -29443.949      0             -28296.932      47065.877    
   1956000   1076.2456     -29411.078      0             -28298.292      48125.844    
   1956500   1096.6267     -29412.861      0             -28279.002      48111.325    
   1957000   1099.6245     -29404.485      0             -28267.526      48343.898    
   1957500   1096.3988     -29425.541      0             -28291.917      47501.605    
   1958000   1102.8908     -29435.18       0             -28294.844      47845.896    
   1958500   1122.1025     -29410.456      0             -28250.256      48370.41     
   1959000   1074.7358     -29425.649      0             -28314.424      47687.896    
   1959500   1110.0392     -29435.868      0             -28288.141      47284.896    
   1960000   1126.3218     -29417.088      0             -28252.526      48203.1      
   1960500   1106.5523     -29427.943      0             -28283.821      47550.439    
   1961000   1096.3684     -29417.427      0             -28283.835      47839.612    
   1961500   1108.3871     -29440.018      0             -28294          47317.805    
   1962000   1091.1069     -29414.333      0             -28286.181      47865.371    
   1962500   1103.926      -29429.862      0             -28288.456      47819.502    
   1963000   1094.2472     -29401.572      0             -28270.173      48640.992    
   1963500   1105.1455     -29431.77       0             -28289.102      47907        
   1964000   1103.0143     -29423.434      0             -28282.97       47723.711    
   1964500   1102.8394     -29441.602      0             -28301.32       47008.127    
   1965000   1111.9037     -29409.642      0             -28259.987      48232.686    
   1965500   1108.5481     -29422.554      0             -28276.368      48038.09     
   1966000   1087.2868     -29417.629      0             -28293.427      47984.945    
   1966500   1107.0686     -29430.579      0             -28285.923      47374.601    
   1967000   1111.1793     -29419.991      0             -28271.085      48043.337    
   1967500   1106.4744     -29439.906      0             -28295.865      47141.184    
   1968000   1103.082      -29436.472      0             -28295.938      47471.028    
   1968500   1096.8069     -29410.668      0             -28276.622      48575.884    
   1969000   1094.1439     -29432.999      0             -28301.707      47637.802    
   1969500   1115.3024     -29433.564      0             -28280.395      47465.674    
   1970000   1106.5161     -29418.596      0             -28274.511      47946.855    
   1970500   1112.233      -29418.231      0             -28268.236      48243.944    
   1971000   1115.4789     -29425.045      0             -28271.694      47979.001    
   1971500   1090.6978     -29429.13       0             -28301.401      47592.939    
   1972000   1106.5667     -29415.841      0             -28271.705      48198.599    
   1972500   1100.9389     -29419.217      0             -28280.899      48003.094    
   1973000   1110.2765     -29418.609      0             -28270.636      48380.066    
   1973500   1100.5943     -29429.459      0             -28291.497      47821.275    
   1974000   1092.5208     -29428.604      0             -28298.99       47854.659    
   1974500   1084.9668     -29437.124      0             -28315.32       47068.609    
   1975000   1108.5226     -29431.606      0             -28285.447      47461.33     
   1975500   1108.1914     -29433.122      0             -28287.305      47656.424    
   1976000   1114.2953     -29429.082      0             -28276.954      47780.21     
   1976500   1092.8706     -29423.403      0             -28293.427      47663.933    
   1977000   1105.4996     -29435.984      0             -28292.95       47603.353    
   1977500   1082.985      -29419.101      0             -28299.346      47558.62     
   1978000   1091.9785     -29450.37       0             -28321.317      46906.953    
   1978500   1109.9229     -29421.665      0             -28274.058      48038.728    
   1979000   1110.0178     -29420.757      0             -28273.052      47967.915    
   1979500   1100.1073     -29424.103      0             -28286.645      48016.953    
   1980000   1099.069      -29430.91       0             -28294.525      47835.054    
   1980500   1108.3697     -29416.098      0             -28270.097      48266.07     
   1981000   1085.4314     -29434.073      0             -28311.789      47802.143    
   1981500   1086.1319     -29421.676      0             -28298.667      47960.146    
   1982000   1116.9035     -29434.247      0             -28279.422      47393.455    
   1982500   1101.8059     -29418.417      0             -28279.202      48482.657    
   1983000   1099.4252     -29433.183      0             -28296.431      47349.057    
   1983500   1095.2894     -29447.616      0             -28315.139      47085.522    
   1984000   1100.2832     -29435.711      0             -28298.071      47284.057    
   1984500   1101.4068     -29416.734      0             -28277.933      48381.817    
   1985000   1093.4724     -29422.515      0             -28291.918      48030.4      
   1985500   1088.8505     -29429.325      0             -28303.506      47639.997    
   1986000   1102.2365     -29434.319      0             -28294.659      47773.546    
   1986500   1095.7518     -29428.918      0             -28295.963      47691.189    
   1987000   1099.0384     -29425.713      0             -28289.36       48026.177    
   1987500   1092.7985     -29416.619      0             -28286.718      47835.82     
   1988000   1097.042      -29445.47       0             -28311.181      47059.725    
   1988500   1110.1648     -29413.802      0             -28265.945      48351.057    
   1989000   1120.9189     -29428.605      0             -28269.629      48311.741    
   1989500   1098.8312     -29424.001      0             -28287.862      47881.264    
   1990000   1123.8868     -29451.744      0             -28289.699      46762.721    
   1990500   1096.3166     -29428.255      0             -28294.716      47722.119    
   1991000   1105.3617     -29410.965      0             -28268.074      48710.732    
   1991500   1103.3352     -29407.114      0             -28266.318      47980.837    
   1992000   1101.6052     -29429.484      0             -28290.477      47784.621    
   1992500   1116.42       -29416.698      0             -28262.374      48384.399    
   1993000   1099.0145     -29442.186      0             -28305.858      47429.335    
   1993500   1075.4495     -29430.045      0             -28318.082      47500.28     
   1994000   1096.7429     -29427.832      0             -28293.852      47670.826    
   1994500   1105.1629     -29420.692      0             -28278.006      47834.624    
   1995000   1103.7618     -29430.257      0             -28289.021      47841.113    
   1995500   1089.5234     -29441.74       0             -28315.226      47371.243    
   1996000   1125.6763     -29418.623      0             -28254.728      48188.644    
   1996500   1102.7016     -29420.462      0             -28280.322      47687.124    
   1997000   1101.2971     -29435.205      0             -28296.516      47820.84     
   1997500   1094.3158     -29416.818      0             -28285.348      47997.391    
   1998000   1102.1085     -29432.87       0             -28293.343      47528.969    
   1998500   1108.738      -29432.173      0             -28285.791      47485.933    
   1999000   1103.5825     -29434.66       0             -28293.608      47473.373    
   1999500   1087.5454     -29427.8        0             -28303.33       47374.983    
   2000000   1104.6928     -29433.676      0             -28291.476      47987.69     
Loop time of 5869.51 on 10 procs for 2000000 steps with 8000 atoms

Performance: 29.440 ns/day, 0.815 hours/ns, 340.744 timesteps/s
97.7% CPU use with 10 MPI tasks x no OpenMP threads

MPI task timing breakdown:
Section |  min time  |  avg time  |  max time  |%varavg| %total
---------------------------------------------------------------
Pair    | 4703       | 4961.5     | 5106       | 179.9 | 84.53
Neigh   | 151.57     | 153.02     | 154.29     |   8.3 |  2.61
Comm    | 498.99     | 646.49     | 914.2      | 507.8 | 11.01
Output  | 2.3148     | 2.3232     | 2.3807     |   1.3 |  0.04
Modify  | 57.666     | 59.838     | 62.041     |  16.9 |  1.02
Other   |            | 46.31      |            |       |  0.79

Nlocal:            800 ave         839 max         774 min
Histogram: 2 1 1 2 0 2 0 1 0 1
Nghost:         4874.6 ave        4932 max        4844 min
Histogram: 2 1 2 2 1 0 1 0 0 1
Neighs:         101561 ave      106297 max       96995 min
Histogram: 1 0 2 1 1 1 2 0 1 1

Total # of neighbors = 1015611
Ave neighs/atom = 126.95137
Neighbor list builds = 50220
Dangerous builds = 0
Total wall time: 1:37:50
