LAMMPS (23 Jun 2022 - Update 4)
# 3d vashishta

units		metal
atom_style	atomic

boundary        p p p


lattice		custom 1              a1 5.5392  0. 0.              a2 0.0 5.5392  0.0            a3 0.0 0.0 5.5392             basis 0.   0.   0.            basis 0.5  0.5  0.            basis 0.5  0.   0.5            basis 0.   0.5  0.5            basis 0.5  0.   0.             basis 0.   0.5  0.             basis 0.   0.   0.5             basis 0.5  0.5  0.5
Lattice spacing in x,y,z = 5.5392 5.5392 5.5392


region		caixa block 0 10 0 10 0 10
create_box	2 caixa
Created orthogonal box = (0 0 0) to (55.392 55.392 55.392)
  1 by 2 by 5 MPI processor grid
create_atoms	1 region caixa basis 1 1 basis 2 1 basis 3 1 basis 4 1             	  basis 5 2 basis 6 2 basis 7 2 basis 8 2
Created 8000 atoms
  using lattice units in orthogonal box = (0 0 0) to (55.392 55.392 55.392)
  create_atoms CPU = 0.001 seconds

mass		1 137.33
mass		2 15.9994

#velocity	all create 2100. 473204 dist gaussian
velocity        all create 2600. 473204 dist gaussian

group		Ba type 1
4000 atoms in group Ba
group		O type 2
4000 atoms in group O

pair_style	table linear 50000
pair_coeff	1 1 Pot_BaO Vash_11
WARNING: 23463 of 50000 force values in table Vash_11 are inconsistent with -dE/dr.
WARNING:  Should only be flagged at inflection points (../pair_table.cpp:463)
WARNING: 43814 of 50000 distance values in table 1e-06 with relative error
WARNING:  over Vash_11 to re-computed values (../pair_table.cpp:471)
pair_coeff	1 2 Pot_BaO Vash_12
WARNING: 23576 of 50000 force values in table Vash_12 are inconsistent with -dE/dr.
WARNING:  Should only be flagged at inflection points (../pair_table.cpp:463)
WARNING: 43814 of 50000 distance values in table 1e-06 with relative error
WARNING:  over Vash_12 to re-computed values (../pair_table.cpp:471)
pair_coeff	2 2 Pot_BaO Vash_22
WARNING: 23794 of 50000 force values in table Vash_22 are inconsistent with -dE/dr.
WARNING:  Should only be flagged at inflection points (../pair_table.cpp:463)
WARNING: 43814 of 50000 distance values in table 1e-06 with relative error
WARNING:  over Vash_22 to re-computed values (../pair_table.cpp:471)

timestep	0.001   #1.0 fs

thermo		500         # intervalo para mostrar output instantaneos.

neighbor	2.0 bin
neigh_modify	every 8 delay 0 check yes

restart		1000 BaO-nvt.T2100

#fix		ensemble all nve
#fix		ensemble all nvt temp 300 300 0.1 iso 0.0 0.0 0.5 drag 2.0
#fix    ensemble all nvt temp 2100 2100 0.1

fix    ensemble all nvt temp 2600 2600 0.05


run		2000000
Generated 0 of 1 mixed pair_coeff terms from geometric mixing rule
Neighbor list info ...
  update every 8 steps, delay 0 steps, check yes
  max neighbors/atom: 2000, page size: 100000
  master list distance cutoff = 11
  ghost atom cutoff = 11
  binsize = 5.5, bins = 11 11 11
  1 neighbor lists, perpetual/occasional/extra = 1 0 0
  (1) pair table, perpetual
      attributes: half, newton on
      pair build: half/bin/atomonly/newton
      stencil: half/bin/3d
      bin: standard
Per MPI rank memory allocation (min/avg/max) = 3.309 | 3.535 | 3.696 Mbytes
   Step          Temp          E_pair         E_mol          TotEng         Press     
         0   2600          -30477.63       0             -27789.355      16582.217    
       500   2626.005      -28047.658      0             -25332.496      104629.43    
      1000   2570.1362     -28179.867      0             -25522.47       99631.648    
      1500   2626.0732     -28091.881      0             -25376.647      102706.23    
      2000   2634.5686     -28141.74       0             -25417.723      101143.48    
      2500   2604.8251     -28116.666      0             -25423.402      102535.35    
      3000   2643.2752     -28129.268      0             -25396.249      102665.01    
      3500   2653.5671     -28127.638      0             -25383.978      102879.55    
      4000   2598.3752     -28150.992      0             -25464.397      101366.97    
      4500   2602.9936     -28121.447      0             -25430.076      102571.42    
      5000   2587.1643     -28111.11       0             -25436.106      102924.26    
      5500   2655.7546     -28159.872      0             -25413.95       101503.22    
      6000   2560.1025     -28110.049      0             -25463.026      103506.39    
      6500   2595.9897     -28132.052      0             -25447.924      101900.58    
      7000   2610.0307     -28094.182      0             -25395.536      102883.36    
      7500   2627.5136     -28126.638      0             -25409.915      102631.09    
      8000   2600.5313     -28125.037      0             -25436.212      102211.9     
      8500   2595.7653     -28133.291      0             -25449.395      102157.14    
      9000   2598.686      -28106.29       0             -25419.373      102681.36    
      9500   2598.5119     -28133.489      0             -25446.752      102032.85    
     10000   2600.3345     -28109.101      0             -25420.48       102584.09    
     10500   2634.2749     -28130.355      0             -25406.642      101583.26    
     11000   2578.2098     -28103.383      0             -25437.638      102135.87    
     11500   2597.1561     -28122.038      0             -25436.704      101246.68    
     12000   2615.2408     -28113.827      0             -25409.794      102432.55    
     12500   2566.2        -28128.629      0             -25475.302      101449.87    
     13000   2602.5811     -28120.238      0             -25429.294      102015.65    
     13500   2643.0185     -28101.677      0             -25368.923      103897.23    
     14000   2597.3659     -28061.362      0             -25375.81       103836.66    
     14500   2596.0698     -28095.513      0             -25411.302      102658.19    
     15000   2615.2359     -28096.883      0             -25392.854      103647.79    
     15500   2599.0369     -28120.233      0             -25432.954      102154.22    
     16000   2638.7125     -28102.903      0             -25374.601      102670.56    
     16500   2563.7601     -28119.923      0             -25469.118      101666.41    
     17000   2569.1581     -28160.766      0             -25504.38       100547.85    
     17500   2594.9789     -28080.464      0             -25397.381      103412.74    
     18000   2572.6563     -28156.169      0             -25496.166      101441.9     
     18500   2591.0743     -28087.815      0             -25408.769      103064.83    
     19000   2607.0811     -28133.058      0             -25437.461      101607.78    
     19500   2643.06       -28150.388      0             -25417.591      101315.87    
     20000   2579.7561     -28123.161      0             -25455.817      101444.17    
     20500   2621.6789     -28132.38       0             -25421.69       101964.02    
     21000   2553.938      -28130.544      0             -25489.895      101216.14    
     21500   2588.518      -28110.202      0             -25433.799      102321.37    
     22000   2593.8213     -28068.688      0             -25386.801      103674.85    
     22500   2545.4232     -28126.774      0             -25494.929      101395.25    
     23000   2628.9314     -28129.679      0             -25411.491      102613.64    
     23500   2618.8095     -28108.869      0             -25401.146      101987.12    
     24000   2603.1026     -28130.8        0             -25439.317      101555.35    
     24500   2613.9997     -28166.623      0             -25463.873      100663.43    
     25000   2627.2614     -28129.21       0             -25412.748      101926.41    
     25500   2619.5173     -28170.649      0             -25462.194      100681.54    
     26000   2618.886      -28120.175      0             -25412.373      102012.21    
     26500   2620.224      -28096.391      0             -25387.206      103839.1     
     27000   2593.4217     -28110.135      0             -25428.662      102758.68    
     27500   2612.3997     -28090.131      0             -25389.035      103321.69    
     28000   2555.4085     -28077.716      0             -25435.547      103583.25    
     28500   2596.9773     -28121.873      0             -25436.723      102636.22    
     29000   2615.5622     -28124.844      0             -25420.478      102145.3     
     29500   2587.6033     -28157.233      0             -25481.776      100964.29    
     30000   2626.098      -28119.676      0             -25404.417      102377.87    
     30500   2573.952      -28135.996      0             -25474.653      101519.16    
     31000   2622.0421     -28107.027      0             -25395.961      103076.73    
     31500   2616.6945     -28113.613      0             -25408.077      102471.34    
     32000   2572.9734     -28117.115      0             -25456.785      100663.42    
     32500   2601.19       -28156.067      0             -25466.562      100069.55    
     33000   2572.3786     -28132.417      0             -25472.702      101916.13    
     33500   2606.6734     -28095.156      0             -25399.981      104079.05    
     34000   2562.9884     -28104.534      0             -25454.527      101668.05    
     34500   2625.0824     -28145.749      0             -25431.54       101246.69    
     35000   2623.2307     -28081.523      0             -25369.229      103557.65    
     35500   2605.581      -28136.723      0             -25442.678      102328.68    
     36000   2613.2905     -28129.146      0             -25427.129      102272.88    
     36500   2620.9511     -28078.177      0             -25368.239      103360.71    
     37000   2595.5614     -28134.953      0             -25451.267      101467.43    
     37500   2624.8545     -28131.006      0             -25417.032      102009.57    
     38000   2613.4859     -28094.008      0             -25391.789      104056.8     
     38500   2584.7998     -28092.705      0             -25420.147      103369.18    
     39000   2615.346      -28136.714      0             -25432.572      101608.03    
     39500   2627.4104     -28090.852      0             -25374.236      103318.58    
     40000   2634.9707     -28129.936      0             -25405.503      102326.36    
     40500   2614.4749     -28110.637      0             -25407.396      102002.98    
     41000   2598.1289     -28128.18       0             -25441.84       102274.65    
     41500   2607.1885     -28103.951      0             -25408.243      102838.55    
     42000   2625.1687     -28186.009      0             -25471.711      100986.09    
     42500   2621.466      -28127.855      0             -25417.386      101472.64    
     43000   2595.7966     -28129.645      0             -25445.716      101589.51    
     43500   2600.4255     -28121.482      0             -25432.767      101823.6     
     44000   2616.6942     -28146.987      0             -25441.451      101655.21    
     44500   2577.7959     -28113.338      0             -25448.021      102347.66    
     45000   2559.1597     -28080.86       0             -25434.812      103278.43    
     45500   2580.4726     -28176.417      0             -25508.333      99691.783    
     46000   2600.4871     -28101.29       0             -25412.512      103134.83    
     46500   2592.1342     -28121.102      0             -25440.96       101828.6     
     47000   2612.738      -28106.252      0             -25404.807      102938.73    
     47500   2632.0308     -28109.596      0             -25388.203      103057.66    
     48000   2616.8388     -28125.521      0             -25419.836      102064.7     
     48500   2569.7073     -28124.43       0             -25467.476      102336.61    
     49000   2603.4942     -28111.894      0             -25420.006      102583.48    
     49500   2606.3247     -28133.708      0             -25438.894      101801.39    
     50000   2632.4152     -28122.447      0             -25400.657      102821.26    
     50500   2599.6598     -28154.931      0             -25467.008      100937.35    
     51000   2539.664      -28127.564      0             -25501.673      102113.44    
     51500   2595.1222     -28079.704      0             -25396.472      103634.23    
     52000   2609.9795     -28115.172      0             -25416.579      102321.07    
     52500   2569.6546     -28154.065      0             -25497.166      100888.75    
     53000   2613.4409     -28137.495      0             -25435.323      102001.29    
     53500   2592.5111     -28121.302      0             -25440.77       102184.95    
     54000   2647.9676     -28092.621      0             -25354.75       102822       
     54500   2640.3216     -28106.828      0             -25376.863      101910.66    
     55000   2593.1723     -28164.95       0             -25483.734      100172.87    
     55500   2592.1269     -28086.702      0             -25406.568      103527.04    
     56000   2587.4651     -28136.764      0             -25461.45       101259.72    
     56500   2625.829      -28087.046      0             -25372.065      103457.96    
     57000   2595.0894     -28124.505      0             -25441.307      102182.66    
     57500   2561.6234     -28112.159      0             -25463.563      102184.3     
     58000   2568.0466     -28133.723      0             -25478.486      101437.86    
     58500   2593.055      -28125.182      0             -25444.088      101873.38    
     59000   2542.2612     -28105.564      0             -25476.988      102356.31    
     59500   2587.8913     -28124.674      0             -25448.919      102494.54    
     60000   2607.6345     -28100.648      0             -25404.479      102694.86    
     60500   2611.9941     -28145.027      0             -25444.351      101481.53    
     61000   2611.1966     -28106.028      0             -25406.177      101919.42    
     61500   2564.334      -28145.656      0             -25494.258      101391.72    
     62000   2632.7729     -28165.348      0             -25443.187      100636.97    
     62500   2594.9255     -28102.183      0             -25419.155      102638.97    
     63000   2580.582      -28115.059      0             -25446.862      102194.3     
     63500   2579.5944     -28117.855      0             -25450.678      102778.85    
     64000   2574.2951     -28126.969      0             -25465.272      101685.53    
     64500   2587.0667     -28111.864      0             -25436.962      101329.29    
     65000   2601.7308     -28158.691      0             -25468.627      101075.62    
     65500   2600.9948     -28061.261      0             -25371.958      103938.48    
     66000   2591.5587     -28092.938      0             -25413.391      103069.75    
     66500   2605.4318     -28125.944      0             -25432.053      102167.07    
     67000   2603.3606     -28117.199      0             -25425.449      102125.75    
     67500   2534.6048     -28135.234      0             -25514.574      101238.58    
     68000   2600.6707     -28125.917      0             -25436.948      101623.85    
     68500   2613.4204     -28089.536      0             -25387.385      102564.89    
     69000   2594.9059     -28130.565      0             -25447.557      101916.29    
     69500   2595.8426     -28117.892      0             -25433.916      103221.36    
     70000   2629.6277     -28097.11       0             -25378.202      103540.38    
     70500   2603.3736     -28126.076      0             -25434.313      102396.83    
     71000   2610.2961     -28120.435      0             -25421.515      102726.82    
     71500   2552.748      -28114.129      0             -25474.711      102224.22    
     72000   2580.5639     -28089.908      0             -25421.729      102891.21    
     72500   2614.8979     -28092.457      0             -25388.779      102534.54    
     73000   2636.5406     -28152.097      0             -25426.041      101099.11    
     73500   2607.7646     -28105.928      0             -25409.625      103241.84    
     74000   2573.0625     -28112.025      0             -25451.602      102142.26    
     74500   2614.0145     -28115.117      0             -25412.352      101917.55    
     75000   2620.8853     -28098.644      0             -25388.775      103163.98    
     75500   2602.9394     -28136.915      0             -25445.601      101859.58    
     76000   2582.3692     -28103.702      0             -25433.656      102103.94    
     76500   2616.0835     -28135.551      0             -25430.646      101510.05    
     77000   2638.6913     -28120.647      0             -25392.367      102875.13    
     77500   2605.6614     -28119.669      0             -25425.54       102675.56    
     78000   2576.0146     -28128.652      0             -25465.177      101758.66    
     78500   2630.0443     -28092.938      0             -25373.599      103591.04    
     79000   2612.7695     -28139.622      0             -25438.144      101192.49    
     79500   2596.2331     -28132.681      0             -25448.3        101747.47    
     80000   2596.427      -28084.164      0             -25399.583      103321.26    
     80500   2605.8699     -28077.587      0             -25383.243      104133.48    
     81000   2598.5691     -28133.354      0             -25446.559      101638.06    
     81500   2582.441      -28126.739      0             -25456.619      101847.79    
     82000   2584.4617     -28121.983      0             -25449.774      102176.89    
     82500   2626.4491     -28121.039      0             -25405.417      101975.63    
     83000   2584.8098     -28108.59       0             -25436.021      102878.26    
     83500   2615.9142     -28130.627      0             -25425.898      101693.51    
     84000   2630.8057     -28108.725      0             -25388.598      102330.72    
     84500   2598.8129     -28130.55       0             -25443.503      101566.46    
     85000   2613.5301     -28119.419      0             -25417.154      101684.33    
     85500   2544.1437     -28122.358      0             -25491.836      100969.17    
     86000   2605.513      -28110.353      0             -25416.378      102943.84    
     86500   2599.2236     -28093.979      0             -25406.507      102708.09    
     87000   2616.4438     -28143.931      0             -25438.653      101636.94    
     87500   2621.5467     -28129.415      0             -25418.861      101791.39    
     88000   2587.8283     -28118.568      0             -25442.878      102173.57    
     88500   2583.8812     -28123.413      0             -25451.804      102522.78    
     89000   2605.2823     -28126.818      0             -25433.081      102200.59    
     89500   2576.2449     -28151.235      0             -25487.521      100233.66    
     90000   2659.4291     -28133.173      0             -25383.451      101535.32    
     90500   2600.1598     -28106.788      0             -25418.348      103066.42    
     91000   2620.5664     -28182.412      0             -25472.872      100421.48    
     91500   2624.2265     -28114.118      0             -25400.794      102670.24    
     92000   2576.3157     -28086.536      0             -25422.749      103717.28    
     92500   2576.2429     -28105.022      0             -25441.311      102605.18    
     93000   2651.1769     -28109.953      0             -25368.764      102702.24    
     93500   2570.1519     -28083.292      0             -25425.878      102186.62    
     94000   2601.2243     -28145.934      0             -25456.393      100605.06    
     94500   2612.6898     -28115.449      0             -25414.053      102830.2     
     95000   2632.0501     -28116.769      0             -25395.356      101922.2     
     95500   2637.0131     -28113.501      0             -25386.956      102421.08    
     96000   2560.7596     -28128.941      0             -25481.238      101768.35    
     96500   2630.7287     -28143.161      0             -25423.114      101827.62    
     97000   2633.1891     -28121.089      0             -25398.498      101736.15    
     97500   2612.9844     -28114.753      0             -25413.053      101860.62    
     98000   2595.8322     -28118.029      0             -25434.064      103029.14    
     98500   2600.1184     -28145.376      0             -25456.979      101265.39    
     99000   2653.9416     -28112.501      0             -25368.453      102371.79    
     99500   2592.5634     -28118.335      0             -25437.749      102596.21    
    100000   2628.2392     -28095.944      0             -25378.471      103329.08    
    100500   2625.6025     -28126.935      0             -25412.188      101431.67    
    101000   2629.9227     -28129.82       0             -25410.606      103196.31    
    101500   2596.264      -28102.179      0             -25417.767      102892.8     
    102000   2594.0952     -28154.482      0             -25472.313      100627.15    
    102500   2600.4191     -28089.753      0             -25401.044      103614.34    
    103000   2591.5367     -28143.125      0             -25463.601      101657.72    
    103500   2601.1833     -28112.88       0             -25423.381      101971.91    
    104000   2580.8296     -28103.015      0             -25434.561      102169.88    
    104500   2596.3916     -28092.577      0             -25408.033      102591.76    
    105000   2568.7102     -28091.922      0             -25435.999      102714.48    
    105500   2624.7973     -28116.886      0             -25402.972      102739.76    
    106000   2579.2549     -28110.411      0             -25443.586      102317.86    
    106500   2601.9854     -28140.632      0             -25450.305      101197.17    
    107000   2640.7272     -28081.914      0             -25351.529      104338.69    
    107500   2632.2776     -28139.967      0             -25418.319      102131.47    
    108000   2605.181      -28102.221      0             -25408.589      102354.81    
    108500   2588.4114     -28112.571      0             -25436.278      103675.94    
    109000   2548.6176     -28126.471      0             -25491.323      101505.06    
    109500   2600.2056     -28091.457      0             -25402.97       103114.37    
    110000   2617.8276     -28127.265      0             -25420.557      102318.82    
    110500   2577.2371     -28115.125      0             -25450.386      101987.89    
    111000   2598.8479     -28079.293      0             -25392.209      103632.74    
    111500   2603.5755     -28138.923      0             -25446.951      102006.01    
    112000   2621.9313     -28106.51       0             -25395.559      102105.93    
    112500   2624.7154     -28154.52       0             -25440.691      101590.05    
    113000   2592.5311     -28118.641      0             -25438.088      101594.66    
    113500   2635.8312     -28125.629      0             -25400.306      102159.12    
    114000   2586.121      -28133.435      0             -25459.51       101345.94    
    114500   2588.5277     -28073.183      0             -25396.769      103611.23    
    115000   2586.555      -28163.462      0             -25489.088      100243       
    115500   2600.1786     -28097.258      0             -25408.798      102762.01    
    116000   2557.6329     -28157.379      0             -25512.909      101068.61    
    116500   2643.1881     -28102.004      0             -25369.074      103456.89    
    117000   2588.7841     -28121.291      0             -25444.613      101646.15    
    117500   2630.1884     -28116.162      0             -25396.674      103439.12    
    118000   2586.3067     -28138.998      0             -25464.881      102174.63    
    118500   2632.5606     -28096.418      0             -25374.477      102948.15    
    119000   2614.0391     -28140.027      0             -25437.236      102670.97    
    119500   2593.1103     -28135.552      0             -25454.4        101847.83    
    120000   2582.464      -28101.468      0             -25431.324      103292.62    
    120500   2604.7558     -28072.175      0             -25378.982      104423.74    
    121000   2605.8666     -28128.594      0             -25434.254      101388.77    
    121500   2634.4512     -28109.626      0             -25385.73       102170.62    
    122000   2582.3582     -28157.629      0             -25487.595      100839.47    
    122500   2573.057      -28073.97       0             -25413.553      103563.03    
    123000   2624.747      -28110.501      0             -25396.639      103846.94    
    123500   2577.362      -28174.538      0             -25509.67       99780.517    
    124000   2624.0112     -28109.958      0             -25396.857      102505.65    
    124500   2658.6342     -28104.499      0             -25355.599      102998.19    
    125000   2594.3954     -28088.616      0             -25406.136      102978.24    
    125500   2595.1558     -28088.738      0             -25405.471      103051.29    
    126000   2624.7736     -28100.304      0             -25386.414      102894.82    
    126500   2581.6161     -28115.996      0             -25446.729      102114.83    
    127000   2628.7317     -28118.395      0             -25400.413      102930.57    
    127500   2598.2395     -28101.362      0             -25414.907      102900.78    
    128000   2568.8765     -28158.908      0             -25502.813      100109.7     
    128500   2594.2999     -28110.453      0             -25428.072      102831.49    
    129000   2605.986      -28094.086      0             -25399.622      103860.38    
    129500   2586.8897     -28177.041      0             -25502.322      100541.83    
    130000   2645.6731     -28141.313      0             -25405.814      101848.35    
    130500   2574.1568     -28126.594      0             -25465.04       102105.97    
    131000   2602.8273     -28128.376      0             -25437.178      100872.22    
    131500   2572.0596     -28114.105      0             -25454.719      102523.39    
    132000   2588.7963     -28078.93       0             -25402.239      103867.82    
    132500   2613.3655     -28104.82       0             -25402.726      102667.63    
    133000   2587.833      -28111.951      0             -25436.256      102868.94    
    133500   2557.1698     -28091.994      0             -25448.003      102641.5     
    134000   2600.8426     -28139.009      0             -25449.863      101188.35    
    134500   2644.9048     -28119.054      0             -25384.35       102703.9     
    135000   2595.6983     -28094.104      0             -25410.277      102973.13    
    135500   2600.2544     -28125.855      0             -25437.317      102516.71    
    136000   2589.0486     -28088.061      0             -25411.11       102680.68    
    136500   2588.1721     -28094.397      0             -25418.352      103423.53    
    137000   2625.9338     -28139.418      0             -25424.329      102400.49    
    137500   2599.0606     -28123.907      0             -25436.604      101693.31    
    138000   2545.5529     -28059.035      0             -25427.056      103709.58    
    138500   2594.7266     -28111.999      0             -25429.176      101475.81    
    139000   2662.4956     -28114.792      0             -25361.9        103408.56    
    139500   2591.6419     -28132.802      0             -25453.169      101426.44    
    140000   2582.7382     -28103.649      0             -25433.222      102630.07    
    140500   2558.6429     -28095.803      0             -25450.29       103390.16    
    141000   2624.9938     -28103.984      0             -25389.867      103381.87    
    141500   2641.8837     -28085.037      0             -25353.456      103753.49    
    142000   2582.5501     -28131.718      0             -25461.486      101940.1     
    142500   2587.6981     -28131.192      0             -25455.636      102149.12    
    143000   2588.2489     -28092.166      0             -25416.041      102602.39    
    143500   2616.5067     -28133.653      0             -25428.311      102694.15    
    144000   2614.4944     -28124.14       0             -25420.879      101721.28    
    144500   2598.2038     -28112.454      0             -25426.036      102164.58    
    145000   2566.7676     -28111.956      0             -25458.042      101426.13    
    145500   2599.9647     -28087.343      0             -25399.105      103848.47    
    146000   2598.6733     -28119.594      0             -25432.691      102374.28    
    146500   2605.8965     -28123.143      0             -25428.772      102227.5     
    147000   2580.0342     -28103.272      0             -25435.64       103094.5     
    147500   2615.4689     -28101.773      0             -25397.504      102766.97    
    148000   2635.493      -28121.07       0             -25396.097      102806.91    
    148500   2588.7777     -28133.904      0             -25457.232      101533.02    
    149000   2579.4274     -28112.703      0             -25445.699      101667.23    
    149500   2618.0394     -28111.942      0             -25405.015      102715.58    
    150000   2577.3873     -28125.878      0             -25460.983      101941.59    
    150500   2589.1045     -28108.873      0             -25431.863      102476.85    
    151000   2584.782      -28112.456      0             -25439.916      103482.74    
    151500   2639.3096     -28099.583      0             -25370.664      102926.65    
    152000   2582.4652     -28118.309      0             -25448.164      102660.36    
    152500   2578.8474     -28142.137      0             -25475.732      101524.59    
    153000   2653.3831     -28080.992      0             -25337.522      103510.72    
    153500   2619.9489     -28154.717      0             -25445.815      101573.08    
    154000   2624.282      -28103.32       0             -25389.939      103204.12    
    154500   2574.0828     -28117.617      0             -25456.139      101739.64    
    155000   2616.7299     -28103.442      0             -25397.869      102962.36    
    155500   2606.1108     -28156.283      0             -25461.69       100997.34    
    156000   2600.0095     -28156.202      0             -25467.917      100357       
    156500   2598.3644     -28122.567      0             -25435.983      101349.12    
    157000   2545.6245     -28155.077      0             -25523.024      100943.31    
    157500   2617.3445     -28124.265      0             -25418.057      102359.37    
    158000   2623.515      -28134.975      0             -25422.387      102287.59    
    158500   2627.7271     -28140.101      0             -25423.157      102181.68    
    159000   2630.9494     -28106.408      0             -25386.132      102781.5     
    159500   2583.1121     -28142.047      0             -25471.233      101412.56    
    160000   2575.424      -28122.666      0             -25459.801      101864.53    
    160500   2577.9365     -28110.156      0             -25444.693      101825.96    
    161000   2569.7997     -28145.717      0             -25488.668      101510.75    
    161500   2615.8513     -28132.384      0             -25427.719      101860.12    
    162000   2610.4005     -28126.2        0             -25427.171      102882.82    
    162500   2594.2157     -28078.226      0             -25395.932      103557.39    
    163000   2589.3291     -28107.311      0             -25430.069      103002.24    
    163500   2635.8957     -28100.391      0             -25375.002      103654.23    
    164000   2606.5348     -28147.913      0             -25452.882      101368.76    
    164500   2651.2411     -28139.039      0             -25397.783      101671.06    
    165000   2565.3553     -28138.151      0             -25485.697      101922.17    
    165500   2586.7893     -28134.758      0             -25460.142      101573.24    
    166000   2567.4837     -28098.007      0             -25443.353      102930.16    
    166500   2569.1016     -28126.147      0             -25469.82       102023.71    
    167000   2597.9735     -28097.13       0             -25410.95       102008.59    
    167500   2593.1286     -28093.43       0             -25412.259      103512.15    
    168000   2622.8897     -28124.544      0             -25412.603      102313.7     
    168500   2601.6568     -28129.906      0             -25439.918      101450.1     
    169000   2599.5561     -28090.347      0             -25402.531      103611.29    
    169500   2572.0562     -28117.254      0             -25457.872      101967.95    
    170000   2605.8051     -28109.915      0             -25415.638      102953.15    
    170500   2633.1753     -28110.832      0             -25388.256      103146.55    
    171000   2618.0156     -28098.818      0             -25391.916      103128.16    
    171500   2582.2375     -28113.144      0             -25443.235      102514.87    
    172000   2571.7104     -28107.621      0             -25448.596      102907.14    
    172500   2550.7031     -28113.069      0             -25475.765      102528.54    
    173000   2622.5639     -28096.425      0             -25384.821      103041.57    
    173500   2576.8031     -28170.405      0             -25506.114      100515.22    
    174000   2584.1054     -28089.932      0             -25418.091      103204.62    
    174500   2611.5129     -28130.881      0             -25430.703      101827.7     
    175000   2585.503      -28096.521      0             -25423.235      103282.07    
    175500   2543.0934     -28127.784      0             -25498.348      102359.62    
    176000   2569.6839     -28117.558      0             -25460.628      101778.66    
    176500   2637.6572     -28137.699      0             -25410.489      102131.19    
    177000   2597.8743     -28138.598      0             -25452.521      101968.89    
    177500   2620.6608     -28093.236      0             -25383.598      102726.81    
    178000   2578.2738     -28161.836      0             -25496.025      101182.76    
    178500   2615.0396     -28113.278      0             -25409.453      102446.96    
    179000   2595.0647     -28090.663      0             -25407.491      103617.5     
    179500   2586.633      -28156.124      0             -25481.67       100776.88    
    180000   2610.5372     -28096.345      0             -25397.175      103373.24    
    180500   2594.0472     -28138.101      0             -25455.98       102216.55    
    181000   2639.6782     -28097.387      0             -25368.087      103245.92    
    181500   2584.3911     -28085.326      0             -25413.19       103326.72    
    182000   2592.0965     -28107.628      0             -25427.525      102306.29    
    182500   2609.9699     -28109.613      0             -25411.029      101952.85    
    183000   2624.19       -28090.881      0             -25377.595      102857.96    
    183500   2596.6592     -28138.294      0             -25453.473      101257.55    
    184000   2628.0072     -28062.179      0             -25344.946      103930.61    
    184500   2626.837      -28093.789      0             -25377.766      103299.51    
    185000   2613.9496     -28126.058      0             -25423.36       103021.95    
    185500   2587.3895     -28091.551      0             -25416.314      103449.71    
    186000   2630.5754     -28081.488      0             -25361.599      103902.54    
    186500   2574.2848     -28154.667      0             -25492.98       100897.98    
    187000   2586.1008     -28100.487      0             -25426.583      102947.95    
    187500   2605.5984     -28071.754      0             -25377.69       103660.59    
    188000   2579.5653     -28121.187      0             -25454.041      102084.72    
    188500   2638.2968     -28134.258      0             -25406.386      101593.93    
    189000   2612.8867     -28107.449      0             -25405.849      102258.6     
    189500   2590.8972     -28158.931      0             -25480.068      101216.7     
    190000   2536.4013     -28106.021      0             -25483.504      102579.52    
    190500   2588.6506     -28112.749      0             -25436.208      102536.33    
    191000   2595.9691     -28084.487      0             -25400.38       103117.21    
    191500   2588.3436     -28134.91       0             -25458.688      101318.17    
    192000   2570.256      -28105.787      0             -25448.266      102348.56    
    192500   2606.8352     -28118.406      0             -25423.064      101597.13    
    193000   2599.6683     -28104.428      0             -25416.496      101879.53    
    193500   2550.7372     -28093.155      0             -25455.816      103034.35    
    194000   2586.9523     -28133.814      0             -25459.03       102607.35    
    194500   2562.3563     -28102.373      0             -25453.02       102652.58    
    195000   2587.5997     -28105.585      0             -25430.131      102524.62    
    195500   2628.4666     -28105.187      0             -25387.479      103174.61    
    196000   2622.4849     -28112.663      0             -25401.14       102236.17    
    196500   2595.016      -28156.168      0             -25473.046      100891.43    
    197000   2639.0173     -28101.262      0             -25372.645      102882.58    
    197500   2569.6323     -28120.118      0             -25463.242      102366.58    
    198000   2615.0519     -28119.921      0             -25416.083      102138.56    
    198500   2565.8823     -28084.823      0             -25431.824      102264.05    
    199000   2602.0386     -28137.648      0             -25447.266      101853.66    
    199500   2607.1973     -28113.041      0             -25417.324      102525.11    
    200000   2595.0479     -28115.799      0             -25432.644      102526.89    
    200500   2584.0583     -28154.659      0             -25482.867      101024.44    
    201000   2636.1153     -28102.743      0             -25377.127      103024.4     
    201500   2597.3751     -28126.512      0             -25440.951      101389.87    
    202000   2581.2522     -28077.731      0             -25408.841      103112.1     
    202500   2574.7343     -28110.219      0             -25448.068      102920.76    
    203000   2641.5662     -28148.142      0             -25416.89       101839.54    
    203500   2662.2109     -28117.613      0             -25365.015      102939.43    
    204000   2613.3007     -28110.625      0             -25408.598      102415.47    
    204500   2577.0904     -28089.417      0             -25424.829      103097.74    
    205000   2562.252      -28136.104      0             -25486.859      100608.96    
    205500   2596.7711     -28101.609      0             -25416.673      102988.57    
    206000   2619.9048     -28157.744      0             -25448.888      100711.85    
    206500   2582.289      -28118.364      0             -25448.401      102124.94    
    207000   2622.0216     -28083.028      0             -25371.984      103390.63    
    207500   2604.3082     -28117.062      0             -25424.333      101206.05    
    208000   2628.9871     -28170.351      0             -25452.104      100680.1     
    208500   2637.2772     -28144.084      0             -25417.266      101746.19    
    209000   2608.1445     -28155.134      0             -25458.438      100844.85    
    209500   2568.8356     -28109.53       0             -25453.477      102102.92    
    210000   2634.2359     -28134.877      0             -25411.203      102368.16    
    210500   2613.4692     -28146.749      0             -25444.547      101144.44    
    211000   2635.3476     -28102.3        0             -25377.478      103084.09    
    211500   2565.2228     -28084.415      0             -25432.098      102796.94    
    212000   2625.0713     -28141.58       0             -25427.382      101806.87    
    212500   2591.4906     -28093.843      0             -25414.366      103119.78    
    213000   2613.7711     -28126.793      0             -25424.28       102072.74    
    213500   2583.9413     -28115.391      0             -25443.72       102786.93    
    214000   2566.0172     -28117.307      0             -25464.169      102426.12    
    214500   2623.3112     -28157.706      0             -25445.328      100442.25    
    215000   2635.2664     -28094.342      0             -25369.603      102586.75    
    215500   2604.6967     -28123.12       0             -25429.989      101611.61    
    216000   2572.6699     -28107.475      0             -25447.459      102327.14    
    216500   2546.9812     -28081.323      0             -25447.867      103458.42    
    217000   2608.4105     -28114.984      0             -25418.013      102301.37    
    217500   2584.2231     -28121.004      0             -25449.041      102938.68    
    218000   2590.7121     -28133.183      0             -25454.511      102267.74    
    218500   2622.4351     -28127.832      0             -25416.36       102868.05    
    219000   2560.9144     -28148.092      0             -25500.23       100802.67    
    219500   2601.4312     -28147.594      0             -25457.839      100682.09    
    220000   2623.5902     -28091.739      0             -25379.073      103440.31    
    220500   2606.336      -28107.537      0             -25412.711      103205.18    
    221000   2650.8484     -28134.915      0             -25394.065      102771.19    
    221500   2606.0463     -28145.806      0             -25451.28       101365.06    
    222000   2643.39       -28096.507      0             -25363.369      103616.61    
    222500   2566.212      -28116.419      0             -25463.079      102555.19    
    223000   2627.8053     -28123.521      0             -25406.496      102412.62    
    223500   2620.3118     -28146.513      0             -25437.236      101906.24    
    224000   2539.6858     -28164.03       0             -25538.118      101022.54    
    224500   2629.7453     -28092.734      0             -25373.704      103184.64    
    225000   2588.7744     -28079.074      0             -25402.406      103646.63    
    225500   2567.4887     -28150.387      0             -25495.727      101015.15    
    226000   2620.5989     -28106.743      0             -25397.17       102678.02    
    226500   2581.9438     -28107.967      0             -25438.361      101851.86    
    227000   2599.8969     -28128.578      0             -25440.409      102365.15    
    227500   2602.2519     -28073.113      0             -25382.51       104562.22    
    228000   2589.9637     -28139.532      0             -25461.634      101047.85    
    228500   2604.4866     -28081.602      0             -25388.688      104316.33    
    229000   2586.5828     -28154.986      0             -25480.583      101756.66    
    229500   2647.367      -28089.158      0             -25351.908      103489.99    
    230000   2637.1104     -28108.649      0             -25382.003      103704.67    
    230500   2630.0492     -28139.433      0             -25420.089      102517.24    
    231000   2588.661      -28075.487      0             -25398.936      104122.15    
    231500   2618.5873     -28117.133      0             -25409.639      102193.42    
    232000   2588.6724     -28154.029      0             -25477.466      101056.51    
    232500   2600.1754     -28136.831      0             -25448.375      102188.99    
    233000   2625.3813     -28117.321      0             -25402.803      102584.3     
    233500   2584.9448     -28114.271      0             -25441.562      102766.04    
    234000   2582.7913     -28113.086      0             -25442.604      102963.74    
    234500   2570.6415     -28126.469      0             -25468.549      101943.64    
    235000   2638.4654     -28135.797      0             -25407.751      101672.86    
    235500   2586.3397     -28119.348      0             -25445.197      102484.88    
    236000   2639.4234     -28117.831      0             -25388.795      103191.69    
    236500   2571.7077     -28127.545      0             -25468.523      102157.61    
    237000   2599.528      -28115.439      0             -25427.652      102806.98    
    237500   2588.6795     -28108.689      0             -25432.119      102227.26    
    238000   2608.2082     -28132.148      0             -25435.386      101132.72    
    238500   2561.4989     -28148.755      0             -25500.288      100792.65    
    239000   2596.8624     -28132.626      0             -25447.595      101053.53    
    239500   2586.4549     -28081.544      0             -25407.274      103406.91    
    240000   2600.1916     -28123.283      0             -25434.81       101959.45    
    240500   2628.2018     -28132.834      0             -25415.4        101986.57    
    241000   2629.961      -28131.793      0             -25412.54       101494.28    
    241500   2559.0349     -28096.062      0             -25450.143      102810.86    
    242000   2605.1949     -28111.289      0             -25417.643      102625.98    
    242500   2599.2944     -28137.985      0             -25450.44       101651.84    
    243000   2630.7865     -28109.792      0             -25389.685      102796.01    
    243500   2550.6532     -28110.34       0             -25473.087      102868.82    
    244000   2579.4317     -28122.636      0             -25455.628      101769.61    
    244500   2588.4594     -28147.455      0             -25471.112      101628.28    
    245000   2612.8979     -28128.867      0             -25427.256      102534.42    
    245500   2631.1524     -28137.665      0             -25417.18       101831.54    
    246000   2630.1694     -28135.29       0             -25415.821      102078.95    
    246500   2581.3202     -28130.036      0             -25461.075      102550.23    
    247000   2620.9388     -28092.152      0             -25382.227      102819.86    
    247500   2604.5079     -28110.56       0             -25417.624      102738.02    
    248000   2591.6375     -28145.638      0             -25466.01       101586.28    
    248500   2607.9685     -28100.097      0             -25403.583      103524.1     
    249000   2579.9185     -28122.398      0             -25454.886      101988.69    
    249500   2583.0901     -28109.018      0             -25438.227      102129.39    
    250000   2625.6655     -28093.085      0             -25378.274      103098.09    
    250500   2638.3619     -28106.892      0             -25378.953      102533.07    
    251000   2596.764      -28126.256      0             -25441.327      101940.33    
    251500   2600.6028     -28077.473      0             -25388.575      104046.88    
    252000   2598.8001     -28158.244      0             -25471.21       100875.01    
    252500   2590.1065     -28155.967      0             -25477.922      100943.88    
    253000   2627.8655     -28165.642      0             -25448.556      100140.55    
    253500   2636.0701     -28138.971      0             -25413.401      101473.43    
    254000   2604.9484     -28145.413      0             -25452.022      101463.67    
    254500   2603.9154     -28130.662      0             -25438.339      102191.46    
    255000   2611.5322     -28131.081      0             -25430.882      101941.61    
    255500   2610.961      -28084.727      0             -25385.118      103813.51    
    256000   2597.9243     -28122.177      0             -25436.048      101796.36    
    256500   2567.7822     -28139.234      0             -25484.271      100943.16    
    257000   2613.6082     -28124.855      0             -25422.51       102014.58    
    257500   2592.2824     -28126.438      0             -25446.143      102613.73    
    258000   2607.2972     -28088.635      0             -25392.815      103717.08    
    258500   2584.514      -28117.019      0             -25444.756      102464.11    
    259000   2566.6791     -28120.448      0             -25466.625      102121.14    
    259500   2586.8939     -28155.111      0             -25480.387      101159.74    
    260000   2596.479      -28113.459      0             -25428.824      101891.42    
    260500   2578.3273     -28158.432      0             -25492.566      100313.03    
    261000   2626.1775     -28128.006      0             -25412.665      102148.47    
    261500   2594.6217     -28115.574      0             -25432.86       102606.76    
    262000   2647.4262     -28151.583      0             -25414.272      101796.03    
    262500   2520.3368     -28109.317      0             -25503.41       101513.74    
    263000   2626.2371     -28120.039      0             -25404.636      102978.12    
    263500   2591.2632     -28148.603      0             -25469.362      101968.62    
    264000   2621.3392     -28129.112      0             -25418.773      102825.55    
    264500   2614.7696     -28140.697      0             -25437.151      101760.85    
    265000   2616.4817     -28131.245      0             -25425.929      102171.24    
    265500   2566.0297     -28087.03       0             -25433.879      102068.68    
    266000   2614.099      -28112.882      0             -25410.029      102585.58    
    266500   2586.973      -28118.314      0             -25443.508      102044.58    
    267000   2548.9719     -28106.232      0             -25470.718      102043.14    
    267500   2614.7879     -28132.92       0             -25429.355      101392.05    
    268000   2603.6615     -28152.184      0             -25460.123      101038.95    
    268500   2628.9565     -28095.085      0             -25376.87       102990.88    
    269000   2625.4916     -28108.138      0             -25393.506      102835.62    
    269500   2618.2178     -28115.817      0             -25408.706      103395.79    
    270000   2557.7944     -28113.006      0             -25468.37       102299.31    
    270500   2623.8087     -28136.666      0             -25423.774      102089.74    
    271000   2615.8252     -28112.73       0             -25408.092      102907.59    
    271500   2575.5483     -28081.631      0             -25418.638      103290.43    
    272000   2583.5267     -28064.919      0             -25393.676      103894.44    
    272500   2598.6671     -28091.407      0             -25404.51       103340.88    
    273000   2606.4872     -28122.827      0             -25427.845      101714.48    
    273500   2590.1283     -28129.097      0             -25451.028      102207.43    
    274000   2581.5136     -28090.218      0             -25421.057      102983.07    
    274500   2623.395      -28120.184      0             -25407.72       101977.86    
    275000   2603.6475     -28072.845      0             -25380.799      103331.79    
    275500   2595.6078     -28112.054      0             -25428.321      102403.99    
    276000   2606.0277     -28093.919      0             -25399.412      102524.33    
    276500   2580.4012     -28097.297      0             -25429.286      103336.42    
    277000   2579.297      -28126.76       0             -25459.891      101681.69    
    277500   2627.4841     -28143.558      0             -25426.866      101973.17    
    278000   2652.3813     -28126.164      0             -25383.729      102124.42    
    278500   2599.2139     -28116.059      0             -25428.597      102162.53    
    279000   2613.2549     -28132.329      0             -25430.349      102438.38    
    279500   2606.9822     -28106.311      0             -25410.817      101722.61    
    280000   2581.8973     -28128.357      0             -25458.799      101676.18    
    280500   2610.0329     -28096.91       0             -25398.262      103080.9     
    281000   2588.3608     -28105.619      0             -25429.378      103064.18    
    281500   2592.5995     -28101.871      0             -25421.248      102655.08    
    282000   2588.7407     -28097.752      0             -25421.118      102199.49    
    282500   2594.6231     -28081.621      0             -25398.906      103973.9     
    283000   2613.7933     -28125.288      0             -25422.751      101622.7     
    283500   2596.6807     -28131.694      0             -25446.851      102674.01    
    284000   2598.1336     -28103.812      0             -25417.467      101810.99    
    284500   2594.7386     -28085.441      0             -25402.606      103015.18    
    285000   2593.5475     -28104.232      0             -25422.628      101946.73    
    285500   2688.5654     -28086.907      0             -25307.06       103330.38    
    286000   2563.1841     -28102.717      0             -25452.508      102842.27    
    286500   2623.3837     -28112.043      0             -25399.59       103013.46    
    287000   2579.243      -28125.925      0             -25459.111      101614.23    
    287500   2602.5097     -28127.514      0             -25436.645      102385.9     
    288000   2608.3627     -28115.907      0             -25418.986      102684.32    
    288500   2625.5885     -28130.748      0             -25416.016      101425.8     
    289000   2599.7486     -28096.151      0             -25408.136      102756.14    
    289500   2561.1631     -28097.756      0             -25449.637      102378.03    
    290000   2583.5995     -28082.194      0             -25410.877      104494.6     
    290500   2595.3944     -28081.56       0             -25398.047      103661.76    
    291000   2625.8739     -28143.123      0             -25428.095      101744.22    
    291500   2577.101      -28146.92       0             -25482.322      101393.04    
    292000   2582.5773     -28072.73       0             -25402.469      103478.09    
    292500   2619.5629     -28098.426      0             -25389.924      102380.03    
    293000   2582.8988     -28123.419      0             -25452.826      101801.93    
    293500   2612.1043     -28094.385      0             -25393.595      103249.25    
    294000   2594.1107     -28126.823      0             -25444.637      102200.38    
    294500   2617.6473     -28112.954      0             -25406.432      101985.38    
    295000   2603.7326     -28138.902      0             -25446.768      101560.18    
    295500   2640.5837     -28154.905      0             -25424.669      101379.4     
    296000   2588.3406     -28120.411      0             -25444.191      101283.15    
    296500   2620.4534     -28121.66       0             -25412.237      102809.9     
    297000   2586.4458     -28128.387      0             -25454.126      102361.49    
    297500   2601.3119     -28103.916      0             -25414.284      103202.26    
    298000   2570.0235     -28071.277      0             -25413.996      104313.89    
    298500   2568.0338     -28115.703      0             -25460.48       101341.24    
    299000   2588.9405     -28095.503      0             -25418.663      102044.93    
    299500   2613.7106     -28100.023      0             -25397.572      103700.65    
    300000   2635.7254     -28095.432      0             -25370.219      102695.13    
    300500   2563.6487     -28155.973      0             -25505.284      100942.38    
    301000   2605.1775     -28081.765      0             -25388.137      103231.09    
    301500   2577.8844     -28081.903      0             -25416.494      103593.06    
    302000   2595.8575     -28122.989      0             -25438.997      101616.15    
    302500   2624.1439     -28093.812      0             -25380.573      103701.94    
    303000   2591.4066     -28112.286      0             -25432.896      103132.11    
    303500   2589.7877     -28136.804      0             -25459.088      101861.68    
    304000   2598.8869     -28103.554      0             -25416.43       103185.21    
    304500   2604.0439     -28135.533      0             -25443.076      102337.36    
    305000   2637.3367     -28113.133      0             -25386.253      102743.36    
    305500   2588.753      -28127.117      0             -25450.471      101107.11    
    306000   2609.4803     -28115.736      0             -25417.659      101726.8     
    306500   2622.0808     -28128.621      0             -25417.515      101675.16    
    307000   2593.1036     -28116.471      0             -25435.327      101758.56    
    307500   2551.7547     -28118.347      0             -25479.956      101553.46    
    308000   2613.9853     -28127.379      0             -25424.644      102136.4     
    308500   2582.5112     -28132.775      0             -25462.583      101105       
    309000   2616.0508     -28104.946      0             -25400.075      103129.91    
    309500   2597.2438     -28138.066      0             -25452.641      101656.43    
    310000   2564.596      -28119.709      0             -25468.04       101908.38    
    310500   2646.7444     -28113.524      0             -25376.917      103310.98    
    311000   2605.9832     -28143.523      0             -25449.062      101119.33    
    311500   2627.7043     -28137.917      0             -25420.997      101629.41    
    312000   2581.2752     -28110.752      0             -25441.838      103437.92    
    312500   2592.3774     -28073.44       0             -25393.047      103854.14    
    313000   2612.92       -28120.829      0             -25419.196      101938.72    
    313500   2568.7956     -28157.459      0             -25501.448      101030.27    
    314000   2596.1699     -28103.016      0             -25418.702      102853.69    
    314500   2567.2054     -28118.136      0             -25463.77       102118.78    
    315000   2619.983      -28113.564      0             -25404.628      102167.12    
    315500   2590.8452     -28136.862      0             -25458.053      101193.75    
    316000   2626.3247     -28092.229      0             -25376.735      103587.39    
    316500   2570.8156     -28112.406      0             -25454.307      102445.23    
    317000   2611.0942     -28116.981      0             -25417.235      102657.03    
    317500   2594.0166     -28105.197      0             -25423.109      102318.56    
    318000   2575.279      -28142.146      0             -25479.431      101459.58    
    318500   2616.7095     -28082.957      0             -25377.405      103629.22    
    319000   2631.2507     -28102.66       0             -25382.073      102472.98    
    319500   2615.6899     -28122.217      0             -25417.719      101856.31    
    320000   2595.3758     -28108.546      0             -25425.053      102460.08    
    320500   2634.9787     -28134.146      0             -25409.705      102118.52    
    321000   2606.3592     -28133.768      0             -25438.918      101908.5     
    321500   2608.2295     -28089.484      0             -25392.7        102460.79    
    322000   2602.052      -28124.685      0             -25434.289      102352.19    
    322500   2622.2033     -28105.274      0             -25394.042      102333.55    
    323000   2588.9995     -28128.974      0             -25452.073      101559.22    
    323500   2598.2341     -28123.78       0             -25437.331      102044.5     
    324000   2615.8695     -28100.298      0             -25395.615      103017.83    
    324500   2607.0894     -28060.569      0             -25364.964      103361.7     
    325000   2632.6244     -28129.387      0             -25407.38       102183.49    
    325500   2605.9638     -28133.052      0             -25438.611      101119.6     
    326000   2617.6234     -28108.083      0             -25401.586      102399.49    
    326500   2578.9215     -28110.765      0             -25444.284      103114.72    
    327000   2590.9679     -28146.851      0             -25467.915      101606.97    
    327500   2550.5828     -28094.942      0             -25457.762      102785.49    
    328000   2611.5407     -28090.563      0             -25390.355      102849.72    
    328500   2616.2452     -28149.151      0             -25444.079      101064.83    
    329000   2584.7502     -28070.54       0             -25398.033      104040.59    
    329500   2577.017      -28139.552      0             -25475.04       100966.14    
    330000   2596.1144     -28089.249      0             -25404.991      102658.22    
    330500   2569.0216     -28147.51       0             -25491.265      101222.74    
    331000   2607.9935     -28119.208      0             -25422.668      101843.09    
    331500   2629.0309     -28117.971      0             -25399.68       103876.76    
    332000   2603.8743     -28107.194      0             -25414.913      102380.09    
    332500   2626.2033     -28100.828      0             -25385.46       102903.31    
    333000   2603.2823     -28132.039      0             -25440.371      101484.52    
    333500   2591.8051     -28091.703      0             -25411.901      102799.6     
    334000   2560.7105     -28103.942      0             -25456.291      102019.34    
    334500   2620.0884     -28099.555      0             -25390.509      103173.2     
    335000   2623.3548     -28113.711      0             -25401.289      102104.09    
    335500   2576.4501     -28124.082      0             -25460.157      102510.21    
    336000   2584.9434     -28097.449      0             -25424.741      102376.88    
    336500   2615.2412     -28076.115      0             -25372.082      103893.35    
    337000   2598.0534     -28132.629      0             -25446.367      101359.53    
    337500   2586.5051     -28123.442      0             -25449.12       103051.62    
    338000   2620.0315     -28108.005      0             -25399.019      102193.11    
    338500   2624.1342     -28135.9        0             -25422.672      102299.85    
    339000   2585.9477     -28104.658      0             -25430.912      102836.76    
    339500   2609.2183     -28110.878      0             -25413.071      102610.37    
    340000   2656.4623     -28075.14       0             -25328.486      104473.61    
    340500   2588.8673     -28140.591      0             -25463.827      100641.02    
    341000   2620.5064     -28147.647      0             -25438.17       101556.63    
    341500   2545.7984     -28124.17       0             -25491.936      101484.43    
    342000   2625.3171     -28137.674      0             -25423.223      101803.57    
    342500   2551.0192     -28125.147      0             -25487.516      102295.22    
    343000   2558.5844     -28113.158      0             -25467.704      102165.57    
    343500   2575.3169     -28095.18       0             -25432.426      102502.64    
    344000   2598.1992     -28153.799      0             -25467.386      101943.24    
    344500   2617.2856     -28113.702      0             -25407.555      102262.75    
    345000   2587.2278     -28102.672      0             -25427.603      103336.77    
    345500   2604.6084     -28126.722      0             -25433.682      101741.17    
    346000   2603.013      -28099.656      0             -25408.266      102138.3     
    346500   2639.2965     -28090.697      0             -25361.792      102769.51    
    347000   2616.2587     -28161.451      0             -25456.365      100706.59    
    347500   2615.6284     -28134.955      0             -25430.521      101412.95    
    348000   2623.0086     -28110.729      0             -25398.665      102689.04    
    348500   2642.3937     -28144.509      0             -25412.401      101781.96    
    349000   2598.7933     -28140.967      0             -25453.94       101285.31    
    349500   2597.6355     -28135.293      0             -25449.462      101782.6     
    350000   2599.1058     -28131.393      0             -25444.043      101311.07    
    350500   2574.0228     -28088.421      0             -25427.005      102614.21    
    351000   2594.1391     -28112.509      0             -25430.294      101752.43    
    351500   2548.8164     -28169.327      0             -25533.974      101015.55    
    352000   2604.9957     -28105.186      0             -25411.746      102531.97    
    352500   2620.9813     -28118.665      0             -25408.696      102136.63    
    353000   2599.5118     -28109.678      0             -25421.908      102991.84    
    353500   2571.5167     -28134.977      0             -25476.153      102033.42    
    354000   2582.4767     -28112.6        0             -25442.443      101850.23    
    354500   2618.8891     -28115.834      0             -25408.028      102030.23    
    355000   2596.8271     -28148          0             -25463.006      101438.24    
    355500   2613.7162     -28130.125      0             -25427.668      101962.46    
    356000   2643.4323     -28141.846      0             -25408.665      101440.88    
    356500   2587.3024     -28147.415      0             -25472.269      101629.94    
    357000   2647.1596     -28140.139      0             -25403.103      101477.24    
    357500   2584.8887     -28122.599      0             -25449.949      101545.32    
    358000   2635.0875     -28121.945      0             -25397.392      102588.76    
    358500   2556.2747     -28089.118      0             -25446.053      103155.99    
    359000   2590.1557     -28124.65       0             -25446.553      101683.01    
    359500   2608.2894     -28102.223      0             -25405.377      103564.66    
    360000   2580.226      -28113.507      0             -25445.677      101829.39    
    360500   2589.4611     -28142.306      0             -25464.928      101495.83    
    361000   2589.8421     -28133.42       0             -25455.647      100693.16    
    361500   2601.854      -28088.068      0             -25397.876      102869.67    
    362000   2630.8043     -28114.996      0             -25394.871      102573.6     
    362500   2591.8455     -28107.695      0             -25427.851      103305.64    
    363000   2602.0518     -28098.691      0             -25408.295      103220.62    
    363500   2585.8434     -28064.387      0             -25390.749      104423.39    
    364000   2628.388      -28122.44       0             -25404.813      102379.15    
    364500   2609.311      -28124.347      0             -25426.445      102557.48    
    365000   2599.5557     -28152.735      0             -25464.92       101524.14    
    365500   2604.9897     -28115.537      0             -25422.103      102985.28    
    366000   2621.8032     -28077.305      0             -25366.487      103846.79    
    366500   2615.9358     -28134.608      0             -25429.856      102447.87    
    367000   2638.245      -28114.579      0             -25386.761      101791.77    
    367500   2554.0889     -28140.326      0             -25499.521      101594.6     
    368000   2618.146      -28103.996      0             -25396.958      102556.41    
    368500   2590.8992     -28147.518      0             -25468.652      100974.64    
    369000   2625.9625     -28144.336      0             -25429.217      101511.55    
    369500   2649.1898     -28118.871      0             -25379.736      101538.94    
    370000   2582.4766     -28127.952      0             -25457.796      101532.49    
    370500   2631.7609     -28130.845      0             -25409.731      102598.52    
    371000   2537.5945     -28085.611      0             -25461.861      103161.62    
    371500   2615.5055     -28122.9        0             -25418.593      101855.79    
    372000   2569.3072     -28117.469      0             -25460.929      102678.39    
    372500   2602.5789     -28086.802      0             -25395.861      103177.97    
    373000   2621.5278     -28058.507      0             -25347.974      104270.38    
    373500   2616.5027     -28075.949      0             -25370.611      103543.06    
    374000   2590.7194     -28125.248      0             -25446.569      102507.85    
    374500   2605.521      -28116.055      0             -25422.072      102993.6     
    375000   2609.9416     -28130.622      0             -25432.068      101257.04    
    375500   2573.5069     -28110.385      0             -25449.502      101793       
    376000   2610.8519     -28141.019      0             -25441.524      101746.11    
    376500   2603.1542     -28100.392      0             -25408.856      103683.2     
    377000   2574.366      -28126.323      0             -25464.552      101814.8     
    377500   2641.9202     -28114.414      0             -25382.796      102811.79    
    378000   2581.704      -28094.997      0             -25425.64       103451.39    
    378500   2578.4857     -28120.662      0             -25454.632      102178.44    
    379000   2603.5019     -28134.339      0             -25442.443      101938.73    
    379500   2582.0155     -28115.771      0             -25446.091      102190.95    
    380000   2623.8576     -28104.164      0             -25391.221      102566.94    
    380500   2562.6696     -28097.754      0             -25448.077      102576.37    
    381000   2586.8618     -28103.729      0             -25429.039      102287.73    
    381500   2604.97       -28075.495      0             -25382.081      103503.24    
    382000   2583.0007     -28100.813      0             -25430.115      103397.18    
    382500   2633.1843     -28081.989      0             -25359.403      102917.69    
    383000   2569.8866     -28131.072      0             -25473.933      101511.99    
    383500   2600.8765     -28065.734      0             -25376.552      103653.66    
    384000   2580.8683     -28132.555      0             -25464.061      101781.64    
    384500   2604.5227     -28119.269      0             -25426.318      102080.75    
    385000   2595.9169     -28131.67       0             -25447.617      101859.69    
    385500   2596.8599     -28116.58       0             -25431.552      102247.05    
    386000   2578.1064     -28129.467      0             -25463.829      101497.52    
    386500   2590.7179     -28103.905      0             -25425.228      102721.61    
    387000   2581.7597     -28119.876      0             -25450.461      102184.77    
    387500   2607.4676     -28123.494      0             -25427.497      101877.13    
    388000   2569.0349     -28116.658      0             -25460.399      101668.33    
    388500   2575.9926     -28129.815      0             -25466.362      101474.51    
    389000   2566.1565     -28111.293      0             -25458.011      101448.92    
    389500   2629.1485     -28100.926      0             -25382.513      102265.27    
    390000   2609.4001     -28090.11       0             -25392.116      103645.24    
    390500   2595.868      -28078.428      0             -25394.425      103039.77    
    391000   2623.9594     -28086.146      0             -25373.098      102656.44    
    391500   2616.1488     -28136.036      0             -25431.064      101860.56    
    392000   2628.9535     -28150.443      0             -25432.232      101395.03    
    392500   2583.182      -28093.129      0             -25422.243      102136.31    
    393000   2588.4299     -28114.594      0             -25438.282      102173.54    
    393500   2623.3793     -28123.933      0             -25411.485      102244.26    
    394000   2608.9728     -28092.819      0             -25395.267      103219.61    
    394500   2574.4933     -28139.92       0             -25478.017      100874.85    
    395000   2594.4628     -28181.268      0             -25498.718      100793.21    
    395500   2584.2868     -28108.463      0             -25436.434      103278.01    
    396000   2587.8295     -28115.529      0             -25439.838      101933.37    
    396500   2562.226      -28105.817      0             -25456.599      102230.86    
    397000   2585.9262     -28122.394      0             -25448.67       103002.45    
    397500   2592.3568     -28101.122      0             -25420.75       102458.75    
    398000   2586.0864     -28099.94       0             -25426.051      102117.36    
    398500   2576.9004     -28109.428      0             -25445.037      103366.39    
    399000   2582.5361     -28121.791      0             -25451.573      102232.59    
    399500   2588.2292     -28097.878      0             -25421.774      102732.9     
    400000   2637.3476     -28106.525      0             -25379.635      102691.17    
    400500   2603.7066     -28092.785      0             -25400.678      102708.76    
    401000   2571.4884     -28143.887      0             -25485.092      101613.49    
    401500   2647.593      -28133.265      0             -25395.782      101674.78    
    402000   2629.7489     -28101.201      0             -25382.167      102938.01    
    402500   2603.2919     -28099.448      0             -25407.769      102870.84    
    403000   2572.8578     -28112.579      0             -25452.368      101900.45    
    403500   2618.8557     -28094.478      0             -25386.707      102633.91    
    404000   2619.5644     -28151.957      0             -25443.453      100805.17    
    404500   2602.2725     -28123.663      0             -25433.039      102255.6     
    405000   2617.7035     -28070.05       0             -25363.471      103045.59    
    405500   2558.9306     -28115.815      0             -25470.004      102155.91    
    406000   2615.8557     -28104.848      0             -25400.179      103058.22    
    406500   2604.1564     -28096.541      0             -25403.968      102829.09    
    407000   2611.345      -28153.964      0             -25453.959      101172.92    
    407500   2630.3678     -28127.377      0             -25407.703      101812.26    
    408000   2576.103      -28099.997      0             -25436.43       103436.09    
    408500   2605.8404     -28122.903      0             -25428.59       101663.44    
    409000   2558.4325     -28110.801      0             -25465.505      102502.95    
    409500   2619.9745     -28095.8        0             -25386.872      104028.7     
    410000   2642.7597     -28101.805      0             -25369.319      103750.88    
    410500   2595.486      -28137.597      0             -25453.99       101821.68    
    411000   2611.6337     -28135.999      0             -25435.696      102113.37    
    411500   2609.1375     -28112.301      0             -25414.578      102651.7     
    412000   2585.7846     -28114.468      0             -25440.891      102410.81    
    412500   2629.9013     -28115.072      0             -25395.88       102342.87    
    413000   2615.2635     -28141.295      0             -25437.238      100874.62    
    413500   2648.362      -28135.149      0             -25396.87       102051.4     
    414000   2580.9459     -28132.314      0             -25463.74       101335.52    
    414500   2606.5614     -28113.642      0             -25418.583      102992.14    
    415000   2565.5313     -28147.799      0             -25495.163      100793.26    
    415500   2626.9107     -28112.088      0             -25395.989      102797.05    
    416000   2560.5578     -28138.889      0             -25491.395      101063.24    
    416500   2579.0299     -28121.85       0             -25455.258      102408.63    
    417000   2618.6363     -28141.885      0             -25434.341      101876.06    
    417500   2600.8815     -28083.828      0             -25394.642      103078.11    
    418000   2581.7458     -28093.059      0             -25423.658      103067.6     
    418500   2637.9138     -28077.68       0             -25350.204      103972.52    
    419000   2535.5938     -28109.619      0             -25487.937      102133.63    
    419500   2645.4548     -28106.978      0             -25371.705      102146.55    
    420000   2606.7585     -28141.825      0             -25446.562      100546.18    
    420500   2636.5945     -28122.524      0             -25396.412      101908.86    
    421000   2571.3416     -28107.886      0             -25449.242      103022.12    
    421500   2629.2034     -28140.466      0             -25421.996      101498.22    
    422000   2585.4029     -28131.199      0             -25458.017      101814.68    
    422500   2562.9094     -28108.747      0             -25458.822      102816.71    
    423000   2627.6352     -28117.491      0             -25400.643      102374.93    
    423500   2570.4339     -28133.033      0             -25475.328      101022.37    
    424000   2608.5891     -28108.313      0             -25411.158      102205.15    
    424500   2581.9395     -28112.833      0             -25443.232      102173.17    
    425000   2654.0534     -28130.092      0             -25385.928      102269.93    
    425500   2627.7133     -28151.809      0             -25434.88       101421.57    
    426000   2574.2981     -28092.947      0             -25431.247      102842.59    
    426500   2621.1795     -28127.696      0             -25417.523      102246.31    
    427000   2588.1965     -28116.135      0             -25440.064      102001.26    
    427500   2597.0943     -28091.149      0             -25405.878      103932.48    
    428000   2629.7477     -28150.053      0             -25431.02       101277.48    
    428500   2597.7987     -28136.119      0             -25450.12       101965.39    
    429000   2596.7131     -28104.147      0             -25419.271      102511.48    
    429500   2583.1605     -28132.974      0             -25462.11       101486.85    
    430000   2600.7121     -28129          0             -25439.989      101789.74    
    430500   2610.9819     -28147.758      0             -25448.128      101511.24    
    431000   2619.5293     -28098.959      0             -25390.492      102592.87    
    431500   2607.7601     -28130.852      0             -25434.554      101476.5     
    432000   2607.092      -28131.555      0             -25435.947      101466.71    
    432500   2577.1934     -28129.682      0             -25464.988      101453.38    
    433000   2591.5636     -28112.923      0             -25433.371      102366.8     
    433500   2644.4895     -28110.747      0             -25376.472      103523.91    
    434000   2597.6716     -28112.763      0             -25426.895      102534.04    
    434500   2568.7694     -28135.048      0             -25479.064      101836.79    
    435000   2606.1308     -28102.205      0             -25407.591      103191.76    
    435500   2622.9952     -28082.864      0             -25370.813      102869.28    
    436000   2602.6151     -28142.58       0             -25451.601      101170.25    
    436500   2586.4507     -28123.302      0             -25449.037      101125.61    
    437000   2616.4563     -28099.159      0             -25393.869      102474.24    
    437500   2592.1305     -28121.998      0             -25441.859      101544.56    
    438000   2594.3434     -28121.658      0             -25439.232      102142.5     
    438500   2621.0836     -28128.977      0             -25418.902      102327.84    
    439000   2547.2159     -28129.528      0             -25495.829      101472.1     
    439500   2599.9918     -28123.839      0             -25435.572      102325.28    
    440000   2595.589      -28116.807      0             -25433.093      102171.74    
    440500   2572.2462     -28111.373      0             -25451.794      101483.09    
[...]
   1892500   2628.3673     -28140.458      0             -25422.853      101535.55    
   1893000   2645.5937     -28090.033      0             -25354.616      104013.42    
   1893500   2553.3953     -28129.703      0             -25489.615      101737.35    
   1894000   2611.0047     -28085.094      0             -25385.44       103359.64    
   1894500   2612.5944     -28124.734      0             -25423.438      102399.73    
   1895000   2596.7859     -28100.095      0             -25415.143      103023.88    
   1895500   2603.765      -28093.343      0             -25401.175      102783.27    
   1896000   2615.0925     -28159.901      0             -25456.021      101143.74    
   1896500   2541.0644     -28088.306      0             -25460.967      102628.19    
   1897000   2610.7919     -28137.461      0             -25438.027      100923.56    
   1897500   2573.669      -28136.453      0             -25475.403      101941.69    
   1898000   2616.9432     -28092.989      0             -25387.195      103485.73    
   1898500   2598.7048     -28081.293      0             -25394.357      103059.48    
   1899000   2612.3401     -28144.179      0             -25443.145      101123.69    
   1899500   2594.1874     -28141.141      0             -25458.876      101130.63    
   1900000   2615.5364     -28107.471      0             -25403.132      102861.02    
   1900500   2575.34       -28116.248      0             -25453.47       103202.45    
   1901000   2584.9999     -28091.186      0             -25418.42       102531.44    
   1901500   2611.2891     -28100.406      0             -25400.458      103274.18    
   1902000   2593.2062     -28126.898      0             -25445.648      103240.4     
   1902500   2607.1289     -28080.491      0             -25384.845      103571.89    
   1903000   2614.084      -28098.63       0             -25395.793      103137.43    
   1903500   2568.1081     -28127.072      0             -25471.772      101073.4     
   1904000   2598.497      -28128.625      0             -25441.904      102097.69    
   1904500   2606.982      -28090.341      0             -25394.847      103088.71    
   1905000   2547.1464     -28118.279      0             -25484.652      101844.99    
   1905500   2593.8098     -28118.732      0             -25436.858      102136.11    
   1906000   2598.4623     -28125.629      0             -25438.944      101503.55    
   1906500   2579.6605     -28127.25       0             -25460.005      101398.02    
   1907000   2587.1565     -28127.25       0             -25452.255      101577.66    
   1907500   2627.3728     -28152.994      0             -25436.417      100697.96    
   1908000   2600.0572     -28149.548      0             -25461.214      100560.37    
   1908500   2643.5324     -28138.866      0             -25405.581      101946.41    
   1909000   2608.1296     -28134.816      0             -25438.136      102091.18    
   1909500   2633.3616     -28076.5        0             -25353.73       103787.4     
   1910000   2620.3736     -28140.219      0             -25430.878      101768.45    
   1910500   2565.6554     -28103.694      0             -25450.93       103362.98    
   1911000   2589.9619     -28085.087      0             -25407.191      103021.5     
   1911500   2573.2476     -28126.449      0             -25465.835      102239.93    
   1912000   2614.3309     -28120.419      0             -25417.327      102372.79    
   1912500   2554.776      -28106.085      0             -25464.569      102940.88    
   1913000   2629.0574     -28044.429      0             -25326.11       105077.2     
   1913500   2610.1268     -28123.112      0             -25424.367      102234.29    
   1914000   2536.652      -28126.295      0             -25503.519      101493.79    
   1914500   2606.2122     -28103.505      0             -25408.807      103047.94    
   1915000   2603.3944     -28149.043      0             -25457.258      101769.12    
   1915500   2604.8309     -28109.826      0             -25416.556      102408.92    
   1916000   2551.7391     -28126.668      0             -25488.292      102349.7     
   1916500   2574.5297     -28078.598      0             -25416.658      102662.9     
   1917000   2621.6134     -28097.65       0             -25387.028      103344.91    
   1917500   2594.0415     -28120.387      0             -25438.273      101801.24    
   1918000   2595.3255     -28109.333      0             -25425.891      102867.92    
   1918500   2580.222      -28136.474      0             -25468.648      101873.04    
   1919000   2621.0457     -28056.456      0             -25346.42       104606.38    
   1919500   2588.0442     -28187.385      0             -25511.471      100442.26    
   1920000   2595.2206     -28087.9        0             -25404.567      102512.01    
   1920500   2605.2007     -28118.7        0             -25425.047      101996.88    
   1921000   2548.495      -28128.297      0             -25493.276      102267.91    
   1921500   2648.0909     -28124.028      0             -25386.029      101784.53    
   1922000   2566.2226     -28085.282      0             -25431.931      103112.5     
   1922500   2575.4668     -28099.99       0             -25437.081      102079.62    
   1923000   2592.1018     -28103.212      0             -25423.104      103325.7     
   1923500   2611.6644     -28161.568      0             -25461.233      100786.23    
   1924000   2624.9851     -28076.33       0             -25362.222      103959.2     
   1924500   2546.4337     -28101.774      0             -25468.884      103206       
   1925000   2585.2863     -28113.345      0             -25440.283      102417.63    
   1925500   2588.3221     -28117.508      0             -25441.308      102545.72    
   1926000   2580.9333     -28133.983      0             -25465.422      102123.18    
   1926500   2604.4811     -28125.589      0             -25432.681      102868.65    
   1927000   2625.8249     -28111.194      0             -25396.217      102018.24    
   1927500   2592.6096     -28069.642      0             -25389.009      104090.71    
   1928000   2566.1158     -28089.931      0             -25436.691      102899.96    
   1928500   2608.7146     -28151.383      0             -25454.097      100990.62    
   1929000   2598.3395     -28105.665      0             -25419.107      102842.18    
   1929500   2569.4923     -28146.847      0             -25490.115      101059.8     
   1930000   2592.4759     -28111.268      0             -25430.773      102494.61    
   1930500   2572.5503     -28133.148      0             -25473.255      102456.41    
   1931000   2653.1996     -28114.591      0             -25371.31       102638.55    
   1931500   2562.1735     -28124.773      0             -25475.609      101793.68    
   1932000   2601.8155     -28102.551      0             -25412.399      102080.02    
   1932500   2587.0276     -28104.601      0             -25429.738      102515.1     
   1933000   2576.1214     -28105.218      0             -25441.632      101929.48    
   1933500   2620.6903     -28088.485      0             -25378.817      103181.38    
   1934000   2620.4127     -28086.638      0             -25377.257      103622.47    
   1934500   2597.4657     -28134.079      0             -25448.425      102772.32    
   1935000   2601.3231     -28093.826      0             -25404.183      103517.47    
   1935500   2585.0597     -28136.883      0             -25464.055      101134.82    
   1936000   2640.4245     -28078.558      0             -25348.486      104138.28    
   1936500   2592.1905     -28135.616      0             -25455.416      101350.86    
   1937000   2606.8088     -28093.853      0             -25398.538      102579.52    
   1937500   2577.9399     -28142.746      0             -25477.28       100991.81    
   1938000   2601.7404     -28085.205      0             -25395.131      103273.04    
   1938500   2585.5933     -28172.046      0             -25498.667      100649.72    
   1939000   2601.154      -28099.125      0             -25409.657      102726.92    
   1939500   2586.1621     -28120.406      0             -25446.439      103004.13    
   1940000   2632.5087     -28143.989      0             -25422.102      101831.91    
   1940500   2603.2086     -28148.583      0             -25456.99       101326.06    
   1941000   2619.0784     -28127.687      0             -25419.686      101962.85    
   1941500   2613.6721     -28126.108      0             -25423.696      101712.36    
   1942000   2637.4015     -28173.028      0             -25446.081      100691.76    
   1942500   2622.8987     -28092.272      0             -25380.321      104031.83    
   1943000   2601.9554     -28121.185      0             -25430.889      102396.25    
   1943500   2643.7396     -28115.644      0             -25382.145      102753.61    
   1944000   2605.4249     -28144.169      0             -25450.285      101907.02    
   1944500   2612.3627     -28116.456      0             -25415.399      102793.09    
   1945000   2619.3947     -28082.011      0             -25373.683      103448.91    
   1945500   2537.8295     -28070.323      0             -25446.33       103560.06    
   1946000   2592.3415     -28139.517      0             -25459.16       101278.77    
   1946500   2584.8424     -28149.108      0             -25476.505      101258.6     
   1947000   2622.4621     -28105.24       0             -25393.741      103028.76    
   1947500   2584.2132     -28122.91       0             -25450.958      101734.38    
   1948000   2604.9979     -28125.082      0             -25431.639      102231.37    
   1948500   2557.582      -28126.308      0             -25481.891      102150.27    
   1949000   2613.599      -28109.759      0             -25407.423      102475.63    
   1949500   2597.2793     -28097.83       0             -25412.368      103547.59    
   1950000   2594.2214     -28123.765      0             -25441.465      102714.87    
   1950500   2592.1367     -28101.659      0             -25421.514      102479.54    
   1951000   2617.8023     -28131.529      0             -25424.848      102043.04    
   1951500   2615.2446     -28088.646      0             -25384.609      103536.35    
   1952000   2544.6185     -28117.187      0             -25486.174      101521.02    
   1952500   2598.5419     -28135.538      0             -25448.771      101514.43    
   1953000   2614.2253     -28090.779      0             -25387.796      103659.96    
   1953500   2603.9442     -28119.635      0             -25427.282      103374.57    
   1954000   2609.3091     -28134.623      0             -25436.723      102235.56    
   1954500   2606.8179     -28103.436      0             -25408.112      103517.7     
   1955000   2560.3558     -28133.955      0             -25486.67       101203.89    
   1955500   2579.1005     -28097.425      0             -25430.759      102699.8     
   1956000   2556.6748     -28079.033      0             -25435.554      102987.31    
   1956500   2586.5357     -28129.548      0             -25455.195      102147.35    
   1957000   2602.8276     -28144.485      0             -25453.286      100961.89    
   1957500   2613.2402     -28112.868      0             -25410.903      103714.06    
   1958000   2603.2138     -28121.403      0             -25429.805      102060.12    
   1958500   2612.0705     -28110.956      0             -25410.201      102763.11    
   1959000   2613.7429     -28158.038      0             -25455.554      101747.22    
   1959500   2578.9153     -28085.426      0             -25418.951      103505.31    
   1960000   2590.5872     -28128.047      0             -25449.505      101933.68    
   1960500   2597.6385     -28124.411      0             -25438.577      102189.81    
   1961000   2589.6729     -28115.118      0             -25437.521      102413.31    
   1961500   2599.5693     -28126.342      0             -25438.512      101879.17    
   1962000   2580.0401     -28106.116      0             -25438.479      102716.22    
   1962500   2649.1303     -28148.288      0             -25409.215      101193.47    
   1963000   2589.0848     -28104.201      0             -25427.212      102730.85    
   1963500   2627.6577     -28145.825      0             -25428.954      102538.59    
   1964000   2567.3042     -28113.814      0             -25459.345      102855.87    
   1964500   2619.5028     -28106.868      0             -25398.428      102815.3     
   1965000   2617.9123     -28119.831      0             -25413.036      102299.65    
   1965500   2576.2987     -28077.622      0             -25413.853      103305.83    
   1966000   2592.4201     -28139.632      0             -25459.194      101493.88    
   1966500   2643.6281     -28082.1        0             -25348.716      103603.79    
   1967000   2604.315      -28104.984      0             -25412.247      102547.51    
   1967500   2620.8975     -28076.958      0             -25367.076      103867.17    
   1968000   2587.5125     -28130.424      0             -25455.06       101678.68    
   1968500   2587.738      -28162.282      0             -25486.686      100883.07    
   1969000   2546.8954     -28077.445      0             -25444.078      102615.39    
   1969500   2582.9399     -28103.287      0             -25432.651      103288.71    
   1970000   2602.54       -28099.939      0             -25409.038      102431.61    
   1970500   2616.8315     -28096.933      0             -25391.255      103270.16    
   1971000   2565.6191     -28114.317      0             -25461.591      102248.87    
   1971500   2622.8972     -28124.154      0             -25412.205      102031.33    
   1972000   2616.8921     -28106.939      0             -25401.199      102590.94    
   1972500   2552.7155     -28114.695      0             -25475.31       102232.67    
   1973000   2587.6156     -28107.781      0             -25432.311      102393.28    
   1973500   2594.6681     -28122.22       0             -25439.458      101624.51    
   1974000   2619.6737     -28095.696      0             -25387.079      102443.31    
   1974500   2582.3601     -28141.114      0             -25471.078      101075.18    
   1975000   2586.6822     -28104.781      0             -25430.276      102174.37    
   1975500   2588.6215     -28120.62       0             -25444.11       102420.21    
   1976000   2601.2667     -28104.296      0             -25414.712      102505.01    
   1976500   2593.8637     -28106.206      0             -25424.275      102795.59    
   1977000   2591.2823     -28142.233      0             -25462.972      102126       
   1977500   2588.3964     -28114.845      0             -25438.568      101797.03    
   1978000   2610.0761     -28099.368      0             -25400.674      102982.3     
   1978500   2594.936      -28094.809      0             -25411.77       102754.51    
   1979000   2609.2473     -28158.84       0             -25461.003      100917.61    
   1979500   2617.1433     -28086.39       0             -25380.389      103134.88    
   1980000   2576.671      -28119.65       0             -25455.496      101617.86    
   1980500   2639.1839     -28109.931      0             -25381.142      102414.27    
   1981000   2601.5691     -28143.541      0             -25453.643      101702.3     
   1981500   2562.9873     -28086.736      0             -25436.731      103042.19    
   1982000   2604.6999     -28133.873      0             -25440.739      101971.16    
   1982500   2550.2281     -28102.678      0             -25465.865      101618       
   1983000   2582.6261     -28115.75       0             -25445.439      101675.67    
   1983500   2588.9127     -28092.918      0             -25416.106      103154.19    
   1984000   2586.7201     -28115.885      0             -25441.341      102672.57    
   1984500   2634.4049     -28116.096      0             -25392.248      101908.42    
   1985000   2594.3471     -28096.751      0             -25414.321      103184.31    
   1985500   2624.3267     -28069.056      0             -25355.628      103069.05    
   1986000   2581.6772     -28101.935      0             -25432.605      102131.77    
   1986500   2620.9139     -28125.264      0             -25415.365      101608.18    
   1987000   2603.79       -28108.427      0             -25416.234      103029.74    
   1987500   2580.9751     -28109.645      0             -25441.041      102557.99    
   1988000   2595.9489     -28115.155      0             -25431.068      102388.48    
   1988500   2583.6602     -28119.767      0             -25448.387      102489.34    
   1989000   2610.8877     -28108.071      0             -25408.539      102493.72    
   1989500   2606.5343     -28088.642      0             -25393.611      104363.84    
   1990000   2647.595      -28150.901      0             -25413.415      101999.16    
   1990500   2577.4741     -28106.668      0             -25441.684      101809.99    
   1991000   2591.7163     -28129.428      0             -25449.718      102369.12    
   1991500   2599.2344     -28084.479      0             -25396.996      103138.36    
   1992000   2616.1987     -28100.629      0             -25395.606      103144.32    
   1992500   2611.774      -28118.959      0             -25418.51       101699.4     
   1993000   2594.5927     -28140.785      0             -25458.101      101165.94    
   1993500   2584.8952     -28108.179      0             -25435.522      102127.07    
   1994000   2591.2047     -28099.07       0             -25419.889      101991.27    
   1994500   2609.1397     -28118.466      0             -25420.741      102312.45    
   1995000   2589.2528     -28110.455      0             -25433.293      103216.54    
   1995500   2564.4238     -28105.333      0             -25453.842      102268.03    
   1996000   2622.4154     -28153.223      0             -25441.772      100671.95    
   1996500   2645.9311     -28100.068      0             -25364.303      103581.44    
   1997000   2608.1211     -28103.015      0             -25406.343      103316.6     
   1997500   2611.0041     -28119.387      0             -25419.734      102163.27    
   1998000   2630.1917     -28122.54       0             -25403.049      102532.37    
   1998500   2653.6194     -28143.676      0             -25399.961      101881.3     
   1999000   2604.2326     -28103.421      0             -25410.77       102570.24    
   1999500   2606.5336     -28101.892      0             -25406.862      102273.59    
   2000000   2544.4405     -28133.947      0             -25503.118      101258.42    
Loop time of 6163.6 on 10 procs for 2000000 steps with 8000 atoms

Performance: 28.036 ns/day, 0.856 hours/ns, 324.486 timesteps/s
97.7% CPU use with 10 MPI tasks x no OpenMP threads

MPI task timing breakdown:
Section |  min time  |  avg time  |  max time  |%varavg| %total
---------------------------------------------------------------
Pair    | 5209.6     | 5266.6     | 5347.4     |  57.3 | 85.45
Neigh   | 253.36     | 257.48     | 272.09     |  39.3 |  4.18
Comm    | 460.65     | 529.65     | 586.68     | 179.4 |  8.59
Output  | 2.3364     | 2.3439     | 2.4012     |   1.2 |  0.04
Modify  | 57.611     | 60.199     | 62.715     |  24.2 |  0.98
Other   |            | 47.31      |            |       |  0.77

Nlocal:            800 ave         825 max         767 min
Histogram: 1 0 2 0 1 1 0 2 0 3
Nghost:         4973.8 ave        5048 max        4916 min
Histogram: 3 0 0 3 0 1 1 0 0 2
Neighs:         102643 ave      105922 max       98142 min
Histogram: 1 0 2 1 0 1 1 1 0 3

Total # of neighbors = 1026432
Ave neighs/atom = 128.304
Neighbor list builds = 83834
Dangerous builds = 0
Total wall time: 1:42:44
