LAMMPS (23 Jun 2022 - Update 4)
# 3d vashishta

units		metal
atom_style	atomic

boundary        p p p


lattice		custom 1              a1 5.5392  0. 0.              a2 0.0 5.5392  0.0            a3 0.0 0.0 5.5392             basis 0.   0.   0.            basis 0.5  0.5  0.            basis 0.5  0.   0.5            basis 0.   0.5  0.5            basis 0.5  0.   0.             basis 0.   0.5  0.             basis 0.   0.   0.5             basis 0.5  0.5  0.5
Lattice spacing in x,y,z = 5.5392 5.5392 5.5392


region		caixa block 0 10 0 10 0 10
create_box	2 caixa
Created orthogonal box = (0 0 0) to (55.392 55.392 55.392)
  1 by 2 by 5 MPI processor grid
create_atoms	1 region caixa basis 1 1 basis 2 1 basis 3 1 basis 4 1             	  basis 5 2 basis 6 2 basis 7 2 basis 8 2
Created 8000 atoms
  using lattice units in orthogonal box = (0 0 0) to (55.392 55.392 55.392)
  create_atoms CPU = 0.002 seconds

mass		1 137.33
mass		2 15.9994

#velocity	all create 2100. 473204 dist gaussian
velocity        all create 20. 473204 dist gaussian

group		Ba type 1
4000 atoms in group Ba
group		O type 2
4000 atoms in group O

pair_style	table linear 50000
pair_coeff	1 1 Pot_BaO Vash_11
WARNING: 23463 of 50000 force values in table Vash_11 are inconsistent with -dE/dr.
WARNING:  Should only be flagged at inflection points (../pair_table.cpp:463)
WARNING: 43814 of 50000 distance values in table 1e-06 with relative error
WARNING:  over Vash_11 to re-computed values (../pair_table.cpp:471)
pair_coeff	1 2 Pot_BaO Vash_12
WARNING: 23576 of 50000 force values in table Vash_12 are inconsistent with -dE/dr.
WARNING:  Should only be flagged at inflection points (../pair_table.cpp:463)
WARNING: 43814 of 50000 distance values in table 1e-06 with relative error
WARNING:  over Vash_12 to re-computed values (../pair_table.cpp:471)
pair_coeff	2 2 Pot_BaO Vash_22
WARNING: 23794 of 50000 force values in table Vash_22 are inconsistent with -dE/dr.
WARNING:  Should only be flagged at inflection points (../pair_table.cpp:463)
WARNING: 43814 of 50000 distance values in table 1e-06 with relative error
WARNING:  over Vash_22 to re-computed values (../pair_table.cpp:471)

timestep	0.001   #1.0 fs

thermo		500         # intervalo para mostrar output instantaneos.

neighbor	2.0 bin
neigh_modify	every 8 delay 0 check yes

restart		1000 BaO-nvt.T2100

#fix		ensemble all nve
#fix		ensemble all nvt temp 300 300 0.1 iso 0.0 0.0 0.5 drag 2.0
#fix    ensemble all nvt temp 2100 2100 0.1

fix    ensemble all nvt temp 20 20 0.05


run		2000000
Generated 0 of 1 mixed pair_coeff terms from geometric mixing rule
Neighbor list info ...
  update every 8 steps, delay 0 steps, check yes
  max neighbors/atom: 2000, page size: 100000
  master list distance cutoff = 11
  ghost atom cutoff = 11
  binsize = 5.5, bins = 11 11 11
  1 neighbor lists, perpetual/occasional/extra = 1 0 0
  (1) pair table, perpetual
      attributes: half, newton on
      pair build: half/bin/atomonly/newton
      stencil: half/bin/3d
      bin: standard
Per MPI rank memory allocation (min/avg/max) = 3.309 | 3.535 | 3.696 Mbytes
   Step          Temp          E_pair         E_mol          TotEng         Press     
         0   20            -30477.63       0             -30456.951     -182.56853    
       500   20.164737     -30455.987      0             -30435.138      739.51709    
      1000   18.892949     -30455.612      0             -30436.078      753.71358    
      1500   20.498929     -30456.538      0             -30435.343      712.66624    
      2000   19.271752     -30456.508      0             -30436.582      717.72034    
      2500   20.422198     -30455.344      0             -30434.228      772.35931    
      3000   19.988449     -30456.313      0             -30435.646      726.07644    
      3500   19.330022     -30455.742      0             -30435.756      742.66826    
      4000   20.089283     -30455.958      0             -30435.187      733.97465    
      4500   19.941644     -30455.735      0             -30435.116      742.00853    
      5000   20.26189      -30456.179      0             -30435.229      728.81457    
      5500   19.537925     -30455.62       0             -30435.419      740.43288    
      6000   20.112028     -30455.707      0             -30434.912      735.11351    
      6500   20.677889     -30456.536      0             -30435.156      714.91246    
      7000   20.554606     -30456.403      0             -30435.15       732.216      
      7500   19.972953     -30456.131      0             -30435.48       719.79462    
      8000   19.768553     -30455.924      0             -30435.484      737.76961    
      8500   20.186037     -30456.049      0             -30435.178      730.60848    
      9000   19.355485     -30455.726      0             -30435.713      751.94624    
      9500   19.229868     -30455.591      0             -30435.708      747.65609    
     10000   19.795856     -30455.467      0             -30434.999      759.25025    
     10500   19.946028     -30456.297      0             -30435.674      727.68944    
     11000   19.748023     -30456.055      0             -30435.636      731.76581    
     11500   20.300465     -30455.995      0             -30435.005      730.97332    
     12000   19.716319     -30455.966      0             -30435.581      737.68332    
     12500   19.379249     -30455.862      0             -30435.825      728.34306    
     13000   19.933473     -30456.256      0             -30435.645      730.31072    
     13500   20.257739     -30456.004      0             -30435.058      737.32945    
     14000   20.285446     -30456.411      0             -30435.437      718.00538    
     14500   20.45702      -30455.665      0             -30434.513      752.21689    
     15000   19.617168     -30456.162      0             -30435.879      718.0075     
     15500   20.214963     -30456.033      0             -30435.132      724.35928    
     16000   19.974848     -30456.282      0             -30435.629      725.27058    
     16500   19.821315     -30455.679      0             -30435.184      755.72919    
     17000   20.084467     -30456.264      0             -30435.498      717.0347     
     17500   19.443521     -30455.526      0             -30435.422      758.78095    
     18000   19.950292     -30456.243      0             -30435.615      726.49945    
     18500   19.777464     -30455.933      0             -30435.484      728.181      
     19000   19.533034     -30455.975      0             -30435.779      730.9578     
     19500   19.564603     -30456.326      0             -30436.097      720.00807    
     20000   19.760938     -30456.176      0             -30435.744      724.8628     
     20500   19.964781     -30456.156      0             -30435.513      732.67739    
     21000   19.716134     -30456.042      0             -30435.656      732.45475    
     21500   20.218749     -30455.91       0             -30435.005      728.51803    
     22000   20.246738     -30456.317      0             -30435.383      708.24436    
     22500   19.556812     -30455.956      0             -30435.735      738.71695    
     23000   19.953205     -30455.846      0             -30435.216      740.68987    
     23500   20.103476     -30456          0             -30435.214      737.9068     
     24000   20.056722     -30456.134      0             -30435.397      729.24269    
     24500   19.869024     -30455.893      0             -30435.35       735.71551    
     25000   20.222085     -30456.052      0             -30435.143      735.268      
     25500   20.373163     -30456.436      0             -30435.371      720.61136    
     26000   19.755808     -30455.975      0             -30435.549      730.3259     
     26500   20.027793     -30456.102      0             -30435.394      716.282      
     27000   19.972279     -30455.804      0             -30435.154      742.26047    
     27500   19.575602     -30456.51       0             -30436.269      700.67119    
     28000   20.001125     -30455.848      0             -30435.167      738.57731    
     28500   20.191041     -30456.022      0             -30435.146      731.98748    
     29000   20.111268     -30456.127      0             -30435.332      729.08422    
     29500   19.903143     -30455.916      0             -30435.337      726.64479    
     30000   19.64067      -30456.229      0             -30435.921      726.16959    
     30500   20.051334     -30456.236      0             -30435.504      730.61685    
     31000   19.573081     -30456.258      0             -30436.021      710.65712    
     31500   20.202688     -30456.312      0             -30435.424      725.27904    
     32000   20.011008     -30455.985      0             -30435.295      726.88544    
     32500   20.020012     -30456.421      0             -30435.721      719.65279    
     33000   19.956568     -30455.931      0             -30435.297      730.71228    
     33500   20.183926     -30456.263      0             -30435.394      727.84398    
     34000   20.421318     -30456.024      0             -30434.91       736.512      
     34500   19.667003     -30456.039      0             -30435.704      725.53652    
     35000   20.076773     -30455.885      0             -30435.127      738.46332    
     35500   19.902373     -30456.428      0             -30435.85       720.14272    
     36000   20.114913     -30455.841      0             -30435.043      749.15639    
     36500   19.83775      -30456.36       0             -30435.848      716.06847    
     37000   20.25379      -30455.8        0             -30434.858      748.03387    
     37500   19.881215     -30456.038      0             -30435.482      734.0928     
     38000   20.081886     -30456.059      0             -30435.296      733.00861    
     38500   20.043523     -30456.331      0             -30435.606      715.8628     
     39000   19.958184     -30456.13       0             -30435.494      743.59081    
     39500   20.176921     -30456.161      0             -30435.299      725.62336    
     40000   19.432399     -30455.767      0             -30435.675      735.48188    
     40500   20.190409     -30455.869      0             -30434.993      732.70534    
     41000   20.222255     -30455.749      0             -30434.84       743.4126     
     41500   20.362833     -30455.789      0             -30434.734      735.828      
     42000   20.205295     -30456.173      0             -30435.282      729.48954    
     42500   19.59753      -30456.019      0             -30435.757      733.30616    
     43000   20.186186     -30455.792      0             -30434.92       738.15796    
     43500   20.017159     -30456.28       0             -30435.584      716.01707    
     44000   19.905639     -30455.91       0             -30435.329      737.13357    
     44500   20.481061     -30456.104      0             -30434.928      735.3854     
     45000   19.971729     -30455.853      0             -30435.203      740.65697    
     45500   20.306046     -30455.929      0             -30434.934      737.80687    
     46000   19.888445     -30456.136      0             -30435.573      728.20162    
     46500   19.889915     -30456.293      0             -30435.728      722.4419     
     47000   20.221172     -30455.791      0             -30434.883      743.457      
     47500   19.913152     -30456.333      0             -30435.744      720.21475    
     48000   19.956482     -30456.03       0             -30435.396      732.85488    
     48500   20.156292     -30456.202      0             -30435.361      734.73458    
     49000   20.068505     -30456.63       0             -30435.88       712.5128     
     49500   20.064726     -30456.185      0             -30435.439      731.92275    
     50000   20.076521     -30456.112      0             -30435.353      736.65868    
     50500   19.937258     -30455.987      0             -30435.373      745.07793    
     51000   19.732099     -30456.382      0             -30435.98       711.11971    
     51500   20.286225     -30456.087      0             -30435.112      738.11139    
     52000   20.152679     -30455.93       0             -30435.094      746.98196    
     52500   19.911138     -30456.111      0             -30435.524      730.99706    
     53000   20.327936     -30456.083      0             -30435.065      732.34643    
     53500   20.261506     -30455.809      0             -30434.859      743.59842    
     54000   20.290478     -30456.191      0             -30435.212      732.97832    
     54500   19.644239     -30456.163      0             -30435.852      724.46626    
     55000   19.958586     -30455.789      0             -30435.152      742.76045    
     55500   19.683771     -30456.561      0             -30436.209      709.29917    
     56000   19.891109     -30456.067      0             -30435.501      737.09065    
     56500   19.883654     -30456.291      0             -30435.733      716.08942    
     57000   20.016142     -30456.232      0             -30435.536      734.85697    
     57500   19.568257     -30455.988      0             -30435.756      734.60337    
     58000   19.890188     -30456.684      0             -30436.119      705.5699     
     58500   20.24293      -30456.254      0             -30435.324      727.1411     
     59000   20.0891       -30456.049      0             -30435.278      728.23762    
     59500   20.072649     -30456.15       0             -30435.396      728.46534    
     60000   20.005487     -30456.195      0             -30435.51       728.59146    
     60500   19.973501     -30456.015      0             -30435.364      739.79918    
     61000   19.845266     -30456.104      0             -30435.585      733.5183     
     61500   19.881933     -30456.387      0             -30435.83       731.11088    
     62000   19.694651     -30456.13       0             -30435.766      739.29029    
     62500   19.848491     -30456.249      0             -30435.726      727.54421    
     63000   19.954592     -30455.944      0             -30435.312      741.3514     
     63500   19.970979     -30455.949      0             -30435.3        739.18409    
     64000   20.038312     -30456.08       0             -30435.361      727.62318    
     64500   20.206209     -30456.046      0             -30435.154      724.35989    
     65000   20.373708     -30456.53       0             -30435.465      714.94517    
     65500   19.985573     -30455.88       0             -30435.216      740.6396     
     66000   19.761932     -30456.08       0             -30435.647      732.49637    
     66500   19.889335     -30455.812      0             -30435.248      751.27341    
     67000   19.783613     -30456.242      0             -30435.787      721.73777    
     67500   19.652701     -30456.164      0             -30435.844      726.00612    
     68000   19.946767     -30456.285      0             -30435.661      726.67789    
     68500   19.855611     -30456.141      0             -30435.611      719.50648    
     69000   20.513219     -30456.205      0             -30434.995      730.56534    
     69500   20.134384     -30456.379      0             -30435.561      720.97199    
     70000   20.19254      -30456.372      0             -30435.494      722.28996    
     70500   19.986902     -30456.037      0             -30435.372      735.09528    
     71000   20.085466     -30456.279      0             -30435.511      723.82284    
     71500   19.899809     -30455.92       0             -30435.344      732.42559    
     72000   19.918685     -30456.086      0             -30435.491      728.55639    
     72500   20.493405     -30455.659      0             -30434.47       752.72918    
     73000   20.045745     -30456.07       0             -30435.344      728.2898     
     73500   19.811125     -30455.81       0             -30435.327      745.4705     
     74000   20.032718     -30456.22       0             -30435.507      726.10863    
     74500   19.99994      -30455.866      0             -30435.187      739.00791    
     75000   20.429052     -30456.281      0             -30435.159      719.94786    
     75500   20.142915     -30455.944      0             -30435.117      732.18997    
     76000   20.116526     -30456.314      0             -30435.515      731.49923    
     76500   20.10851      -30455.905      0             -30435.114      739.68247    
     77000   19.919098     -30456.003      0             -30435.408      728.52977    
     77500   19.52085      -30456.174      0             -30435.991      719.47927    
     78000   20.301427     -30456.12       0             -30435.129      731.06763    
     78500   19.853752     -30455.933      0             -30435.405      732.31811    
     79000   20.299488     -30456.238      0             -30435.249      721.6168     
     79500   20.167481     -30456.544      0             -30435.691      698.60513    
     80000   20.115555     -30456.047      0             -30435.248      736.88036    
     80500   19.847907     -30456.233      0             -30435.711      728.11592    
     81000   19.920696     -30456.105      0             -30435.508      723.62778    
     81500   19.814654     -30456.144      0             -30435.656      731.03344    
     82000   20.04433      -30456.072      0             -30435.347      729.50095    
     82500   20.134871     -30456.009      0             -30435.19       736.4424     
     83000   19.908147     -30456.286      0             -30435.702      722.42856    
     83500   19.868183     -30455.69       0             -30435.147      745.30035    
     84000   19.584999     -30456.049      0             -30435.799      728.19215    
     84500   19.808855     -30456.289      0             -30435.808      718.14045    
     85000   20.439971     -30456.224      0             -30435.09       726.28262    
     85500   20.188057     -30456.145      0             -30435.271      730.85234    
     86000   20.360569     -30456.315      0             -30435.264      716.7364     
     86500   19.910098     -30456.271      0             -30435.685      728.93602    
     87000   20.22789      -30456.343      0             -30435.428      727.43351    
     87500   20.056792     -30455.911      0             -30435.173      737.83927    
     88000   20.30145      -30456.293      0             -30435.302      731.8641     
     88500   20.169135     -30456.153      0             -30435.3        740.8273     
     89000   20.185815     -30456.05       0             -30435.179      739.19326    
     89500   19.904954     -30456.198      0             -30435.617      728.92054    
     90000   19.825401     -30456.355      0             -30435.856      715.48605    
     90500   20.007678     -30455.844      0             -30435.157      747.38433    
     91000   20.327339     -30456.496      0             -30435.479      710.13234    
     91500   19.812723     -30455.917      0             -30435.431      746.97478    
     92000   20.487653     -30456.08       0             -30434.896      737.24384    
     92500   20.253092     -30456.403      0             -30435.462      720.74345    
     93000   19.889312     -30455.843      0             -30435.278      737.88867    
     93500   20.122082     -30456.268      0             -30435.463      721.4116     
     94000   19.815665     -30456.096      0             -30435.607      735.12509    
     94500   19.941229     -30456.014      0             -30435.396      739.17744    
     95000   20.060429     -30456.131      0             -30435.389      734.58398    
     95500   19.958662     -30456.244      0             -30435.608      723.71219    
     96000   20.431008     -30455.879      0             -30434.754      746.34527    
     96500   20.103539     -30455.959      0             -30435.173      742.4387     
     97000   19.98635      -30456.211      0             -30435.546      729.07517    
     97500   19.84713      -30456.399      0             -30435.878      718.78127    
     98000   20.270332     -30456.245      0             -30435.286      737.36311    
     98500   19.805916     -30456.009      0             -30435.531      733.56486    
     99000   19.764654     -30455.721      0             -30435.286      749.56715    
     99500   20.515086     -30456.127      0             -30434.915      736.09722    
    100000   19.990768     -30455.76       0             -30435.091      754.42398    
    100500   19.839478     -30456.02       0             -30435.507      733.22167    
    101000   19.972696     -30456.037      0             -30435.387      729.65156    
    101500   19.702247     -30456.39       0             -30436.019      721.77711    
    102000   20.096982     -30455.861      0             -30435.081      735.99335    
    102500   20.082921     -30456.085      0             -30435.32       740.46262    
    103000   20.341358     -30456.392      0             -30435.36       717.01501    
    103500   19.794807     -30456.109      0             -30435.642      724.55043    
    104000   19.91365      -30455.872      0             -30435.282      753.44116    
    104500   19.816602     -30456.285      0             -30435.796      726.13553    
    105000   20.279446     -30456.205      0             -30435.237      733.43054    
    105500   19.81597      -30456.092      0             -30435.603      731.67257    
    106000   20.052922     -30456.071      0             -30435.337      738.09262    
    106500   20.133254     -30456.223      0             -30435.406      738.19304    
    107000   20.078624     -30456.055      0             -30435.295      744.11425    
    107500   20.13782      -30456.192      0             -30435.371      740.1298     
    108000   20.100573     -30456.38       0             -30435.597      717.93194    
    108500   19.830042     -30455.966      0             -30435.462      733.02682    
    109000   20.115519     -30455.923      0             -30435.125      745.32617    
    109500   20.042863     -30456.241      0             -30435.517      731.69633    
    110000   20.059993     -30455.985      0             -30435.244      740.70318    
    110500   20.230007     -30456.205      0             -30435.288      741.82288    
    111000   20.219559     -30455.861      0             -30434.955      741.50278    
    111500   20.014335     -30455.943      0             -30435.249      743.21236    
    112000   20.117272     -30455.981      0             -30435.181      734.41031    
    112500   20.004505     -30456.236      0             -30435.552      715.62228    
    113000   20.036014     -30456.024      0             -30435.307      743.00072    
    113500   19.714531     -30455.961      0             -30435.577      745.89112    
    114000   19.829331     -30456.136      0             -30435.634      728.22005    
    114500   20.242275     -30456.279      0             -30435.35       721.60459    
    115000   19.73041      -30456.031      0             -30435.63       740.90367    
    115500   20.132463     -30455.891      0             -30435.075      743.07524    
    116000   19.791022     -30456.027      0             -30435.564      725.37849    
    116500   20.212452     -30455.869      0             -30434.971      754.82686    
    117000   19.76246      -30456.091      0             -30435.657      731.27974    
    117500   19.873613     -30455.915      0             -30435.367      742.34272    
    118000   20.101476     -30456.244      0             -30435.46       717.87785    
    118500   20.352603     -30456.078      0             -30435.034      743.99319    
    119000   20.005594     -30456.405      0             -30435.72       721.59497    
    119500   19.957274     -30456.021      0             -30435.386      731.1916     
    120000   19.816613     -30456.032      0             -30435.542      731.25205    
    120500   20.045443     -30456.157      0             -30435.431      732.54636    
    121000   20.257569     -30456.232      0             -30435.286      730.0701     
    121500   19.735576     -30456.176      0             -30435.771      734.82838    
    122000   20.469196     -30456.246      0             -30435.081      734.42076    
    122500   19.746043     -30456.302      0             -30435.885      717.76176    
    123000   19.834387     -30456.213      0             -30435.705      726.12931    
    123500   20.162067     -30456.149      0             -30435.303      737.93013    
    124000   20.193996     -30456.54       0             -30435.66       710.87243    
    124500   19.960723     -30456.105      0             -30435.466      742.53419    
    125000   19.71385      -30456.216      0             -30435.833      723.63953    
    125500   20.07521      -30456.091      0             -30435.334      730.61315    
    126000   20.163366     -30456.149      0             -30435.301      731.1125     
    126500   20.181453     -30455.968      0             -30435.101      735.45493    
    127000   20.124988     -30456.309      0             -30435.5        718.36305    
    127500   19.956589     -30455.822      0             -30435.188      735.15115    
    128000   20.003341     -30455.719      0             -30435.036      749.11111    
    128500   19.949845     -30456.054      0             -30435.427      729.67666    
    129000   20.203314     -30456.04       0             -30435.151      744.70265    
    129500   19.988451     -30455.991      0             -30435.324      739.88783    
    130000   19.983273     -30456.176      0             -30435.515      733.14949    
    130500   20.096504     -30456.197      0             -30435.418      732.20734    
    131000   19.732214     -30455.913      0             -30435.511      735.18575    
    131500   20.05226      -30455.845      0             -30435.112      742.83081    
    132000   19.879485     -30456.248      0             -30435.694      731.48914    
    132500   19.871413     -30456.114      0             -30435.568      722.52039    
    133000   20.00388      -30456.146      0             -30435.463      724.39004    
    133500   20.275711     -30456.319      0             -30435.355      722.48343    
    134000   19.909909     -30456.099      0             -30435.513      731.54297    
    134500   20.27369      -30456.341      0             -30435.379      719.54961    
    135000   19.8854       -30455.583      0             -30435.022      755.23509    
    135500   19.958024     -30456.124      0             -30435.489      736.88745    
    136000   19.929558     -30455.828      0             -30435.222      744.37924    
    136500   20.270756     -30456.277      0             -30435.318      731.14133    
    137000   20.04073      -30456.035      0             -30435.314      725.45761    
    137500   20.045826     -30455.924      0             -30435.198      739.44357    
    138000   20.032558     -30456.114      0             -30435.402      738.79686    
    138500   19.65314      -30456.12       0             -30435.8        726.77015    
    139000   20.27385      -30456.251      0             -30435.288      730.07436    
    139500   19.682836     -30456.045      0             -30435.694      728.33993    
    140000   19.856543     -30455.752      0             -30435.221      751.27583    
    140500   20.020724     -30456.382      0             -30435.681      709.43274    
    141000   20.462847     -30456.275      0             -30435.117      737.739      
    141500   20.285221     -30456.227      0             -30435.253      722.44723    
    142000   20.160835     -30456.068      0             -30435.223      732.21206    
    142500   19.77498      -30455.989      0             -30435.543      731.31767    
    143000   20.148701     -30456.236      0             -30435.403      734.35167    
    143500   20.085416     -30456.098      0             -30435.331      741.27544    
    144000   19.830298     -30456.571      0             -30436.068      707.05198    
    144500   19.863213     -30455.982      0             -30435.445      742.5507     
    145000   20.221107     -30456.22       0             -30435.313      736.72667    
    145500   19.73515      -30456.42       0             -30436.014      716.20282    
    146000   19.91184      -30456.23       0             -30435.642      716.99864    
    146500   20.22347      -30456.027      0             -30435.117      734.91899    
    147000   19.920981     -30456.012      0             -30435.415      722.11694    
    147500   20.058284     -30456.106      0             -30435.367      728.72868    
    148000   20.396168     -30456.252      0             -30435.163      722.33902    
    148500   19.864457     -30455.973      0             -30435.434      733.03304    
    149000   19.85556      -30456.289      0             -30435.759      725.39787    
    149500   20.085115     -30455.962      0             -30435.195      740.60107    
    150000   19.655952     -30455.928      0             -30435.605      736.90999    
    150500   20.300045     -30455.87       0             -30434.881      745.38015    
    151000   20.214057     -30456.219      0             -30435.318      741.57677    
    151500   19.815409     -30455.571      0             -30435.083      757.2862     
    152000   19.744461     -30455.756      0             -30435.341      744.48702    
    152500   20.018456     -30455.944      0             -30435.246      735.99947    
    153000   19.932283     -30456.256      0             -30435.647      723.42932    
    153500   19.973656     -30455.832      0             -30435.18       738.0977     
    154000   20.212955     -30456.211      0             -30435.312      722.31292    
    154500   19.765694     -30456.256      0             -30435.819      719.82188    
    155000   19.770841     -30456.246      0             -30435.804      724.40783    
    155500   20.352699     -30456.115      0             -30435.071      737.48534    
    156000   19.911645     -30455.989      0             -30435.402      732.5395     
    156500   19.786967     -30456.093      0             -30435.634      725.6567     
    157000   19.992232     -30456.236      0             -30435.565      725.83126    
    157500   20.226302     -30456.147      0             -30435.234      736.07998    
    158000   19.822697     -30456.277      0             -30435.782      724.77611    
    158500   20.031507     -30456.23       0             -30435.519      724.77209    
    159000   20.345036     -30456.302      0             -30435.266      726.65499    
    159500   20.084465     -30455.846      0             -30435.079      736.89821    
    160000   19.800952     -30456.413      0             -30435.94       712.7801     
    160500   19.914348     -30456.195      0             -30435.604      728.798      
    161000   20.089774     -30455.969      0             -30435.198      737.01576    
    161500   20.146275     -30455.987      0             -30435.157      741.17083    
    162000   20.33273      -30455.745      0             -30434.722      752.05904    
    162500   19.887716     -30456.244      0             -30435.681      721.43901    
    163000   19.856461     -30455.93       0             -30435.399      735.7475     
    163500   20.186422     -30456.407      0             -30435.536      717.49199    
    164000   19.889102     -30456.087      0             -30435.522      725.62928    
    164500   20.323354     -30455.789      0             -30434.776      736.12097    
    165000   19.993539     -30456.303      0             -30435.631      732.84526    
    165500   20.098867     -30456.278      0             -30435.497      729.77635    
    166000   19.914309     -30455.982      0             -30435.392      743.20973    
    166500   19.822007     -30456.153      0             -30435.658      728.0779     
    167000   20.047355     -30456.085      0             -30435.357      722.64733    
    167500   20.079021     -30456.098      0             -30435.337      728.7833     
    168000   20.215994     -30455.846      0             -30434.943      741.46943    
    168500   20.177933     -30456.177      0             -30435.314      728.67159    
    169000   19.864341     -30456.081      0             -30435.543      730.34322    
    169500   20.075637     -30456.045      0             -30435.288      749.08965    
    170000   19.9694       -30456.444      0             -30435.797      713.57144    
    170500   19.92268      -30455.8        0             -30435.201      744.26841    
    171000   20.027674     -30456.216      0             -30435.508      729.59909    
    171500   19.748708     -30456.423      0             -30436.004      702.68581    
    172000   20.133632     -30456.016      0             -30435.199      737.0518     
    172500   19.818237     -30456.358      0             -30435.866      719.09391    
    173000   19.949939     -30455.964      0             -30435.336      731.76303    
    173500   20.032906     -30456.239      0             -30435.526      729.63534    
    174000   20.070346     -30455.673      0             -30434.921      746.88506    
    174500   19.973232     -30456.188      0             -30435.536      734.56542    
    175000   19.736675     -30456.191      0             -30435.784      718.01965    
    175500   19.826231     -30456.262      0             -30435.762      725.42655    
    176000   20.03731      -30456.202      0             -30435.484      730.9156     
    176500   20.009028     -30456.141      0             -30435.453      730.37545    
    177000   20.071779     -30456.196      0             -30435.442      731.67384    
    177500   19.950191     -30456.243      0             -30435.615      730.81523    
    178000   19.961525     -30456          0             -30435.36       746.6487     
    178500   19.64811      -30456.013      0             -30435.697      735.74185    
    179000   20.127915     -30455.852      0             -30435.041      745.61759    
    179500   19.768247     -30456.334      0             -30435.895      729.18443    
    180000   19.880131     -30456.065      0             -30435.51       733.18259    
    180500   20.00884      -30456.046      0             -30435.358      732.61885    
    181000   19.956002     -30456.034      0             -30435.4        730.34275    
    181500   20.158463     -30456.125      0             -30435.282      739.0634     
    182000   20.217708     -30456.04       0             -30435.136      738.55941    
    182500   19.910499     -30456.214      0             -30435.628      730.74243    
    183000   20.264977     -30455.775      0             -30434.822      755.17586    
    183500   19.666765     -30456.099      0             -30435.765      734.44876    
    184000   19.938179     -30456.11       0             -30435.495      732.13297    
    184500   20.208438     -30456.115      0             -30435.221      732.83004    
    185000   19.803583     -30455.981      0             -30435.505      740.69624    
    185500   19.700623     -30456.56       0             -30436.191      708.55809    
    186000   19.960873     -30455.823      0             -30435.184      747.17671    
    186500   19.911303     -30456.283      0             -30435.696      718.98423    
    187000   20.213947     -30456.289      0             -30435.389      726.83519    
    187500   20.073076     -30455.82       0             -30435.066      743.26047    
    188000   20.122195     -30455.935      0             -30435.13       734.96112    
    188500   20.171613     -30456.341      0             -30435.484      718.95691    
    189000   20.004602     -30455.659      0             -30434.976      756.3482     
    189500   19.747616     -30455.974      0             -30435.556      734.09161    
    190000   20.099295     -30456.266      0             -30435.484      726.44786    
    190500   19.950287     -30455.99       0             -30435.362      741.83795    
    191000   20.1567       -30456.055      0             -30435.214      745.54821    
    191500   19.698677     -30456.132      0             -30435.765      727.12091    
    192000   19.781132     -30456.128      0             -30435.675      733.62802    
    192500   20.233973     -30456.042      0             -30435.121      737.95739    
    193000   20.112839     -30456.188      0             -30435.393      729.07401    
    193500   20.00534      -30456.017      0             -30435.332      737.23782    
    194000   20.0661       -30456.028      0             -30435.281      728.83028    
    194500   19.669978     -30455.985      0             -30435.647      733.26459    
    195000   19.798062     -30456.535      0             -30436.065      707.96856    
    195500   20.405957     -30456.051      0             -30434.952      736.57903    
    196000   19.980058     -30455.902      0             -30435.244      739.64922    
    196500   20.081908     -30455.851      0             -30435.087      749.36985    
    197000   20.082741     -30456.298      0             -30435.533      717.72425    
    197500   19.790411     -30455.999      0             -30435.537      740.8915     
    198000   19.786865     -30456.072      0             -30435.614      740.16961    
    198500   20.280105     -30456.409      0             -30435.441      722.65926    
    199000   19.94591      -30455.806      0             -30435.183      744.5335     
    199500   20.120692     -30456.037      0             -30435.233      734.79563    
    200000   19.876876     -30456.167      0             -30435.615      734.01393    
    200500   20.34538      -30456.143      0             -30435.107      733.50228    
    201000   20.119589     -30456.112      0             -30435.309      729.77955    
    201500   19.838201     -30456.112      0             -30435.6        736.47079    
    202000   20.301188     -30456.254      0             -30435.264      720.92667    
    202500   20.003903     -30456.097      0             -30435.413      732.42801    
    203000   19.963451     -30456.05       0             -30435.408      732.08587    
    203500   19.908761     -30456.344      0             -30435.759      726.7864     
    204000   19.836048     -30455.91       0             -30435.4        748.60338    
    204500   20.215981     -30456.038      0             -30435.136      736.78327    
    205000   19.944833     -30456.291      0             -30435.669      727.87529    
    205500   20.118398     -30455.833      0             -30435.032      742.87035    
    206000   20.136431     -30456.168      0             -30435.348      725.14365    
    206500   19.693519     -30456.196      0             -30435.834      722.76778    
    207000   20.072272     -30456.383      0             -30435.629      722.83652    
    207500   20.029693     -30456.408      0             -30435.698      717.20962    
    208000   20.097002     -30456.049      0             -30435.269      735.80596    
    208500   20.058771     -30456.229      0             -30435.49       727.64356    
    209000   20.070259     -30455.959      0             -30435.207      756.29685    
    209500   19.918578     -30456.166      0             -30435.571      726.13948    
    210000   19.762293     -30455.968      0             -30435.534      739.83723    
    210500   19.826856     -30456.051      0             -30435.551      741.8431     
    211000   20.306524     -30455.876      0             -30434.88       743.28217    
    211500   19.762        -30456.139      0             -30435.706      728.78102    
    212000   20.10929      -30455.982      0             -30435.19       735.39438    
    212500   19.84536      -30456.343      0             -30435.823      723.04956    
    213000   20.014541     -30455.931      0             -30435.237      738.59705    
    213500   19.784305     -30456.183      0             -30435.727      723.57293    
    214000   20.067068     -30455.933      0             -30435.185      726.03404    
    214500   19.960315     -30456.064      0             -30435.426      735.59213    
    215000   19.91148      -30455.836      0             -30435.249      746.67515    
    215500   19.780941     -30456.231      0             -30435.778      727.64424    
    216000   19.987921     -30456.216      0             -30435.55       727.8872     
    216500   19.851072     -30456.14       0             -30435.615      732.56151    
    217000   20.081563     -30456.242      0             -30435.478      721.50337    
    217500   20.195128     -30456.197      0             -30435.317      723.29273    
    218000   20.029437     -30455.931      0             -30435.222      732.81042    
    218500   19.979492     -30456.099      0             -30435.441      732.00884    
    219000   20.356316     -30456.305      0             -30435.258      722.7704     
    219500   20.06083      -30456.403      0             -30435.662      714.83533    
    220000   19.996254     -30456.235      0             -30435.559      726.90224    
    220500   19.714046     -30455.961      0             -30435.577      742.30447    
    221000   19.994992     -30456.005      0             -30435.331      743.17815    
    221500   19.844552     -30456.387      0             -30435.869      718.84536    
    222000   19.878948     -30455.988      0             -30435.434      733.09357    
    222500   19.905408     -30456.419      0             -30435.838      716.52764    
    223000   20.346768     -30455.9        0             -30434.862      744.28884    
    223500   20.001118     -30456.567      0             -30435.887      713.03083    
    224000   19.911647     -30456.075      0             -30435.488      733.44783    
    224500   20.067074     -30455.931      0             -30435.183      736.14658    
    225000   20.112935     -30456.18       0             -30435.384      728.12111    
    225500   20.070055     -30455.745      0             -30434.994      749.55056    
    226000   20.229343     -30456.275      0             -30435.359      728.74926    
    226500   20.166761     -30455.937      0             -30435.086      737.95748    
    227000   20.042898     -30455.981      0             -30435.257      735.03206    
    227500   20.265886     -30456.053      0             -30435.099      731.37115    
    228000   19.559767     -30455.829      0             -30435.605      736.17278    
    228500   19.931094     -30456.033      0             -30435.426      724.45822    
    229000   19.892463     -30455.713      0             -30435.145      746.12976    
    229500   19.923372     -30456.383      0             -30435.783      718.21026    
    230000   20.084987     -30455.891      0             -30435.124      736.29148    
    230500   19.863446     -30456.094      0             -30435.556      731.45005    
    231000   19.897011     -30456.289      0             -30435.716      717.80638    
    231500   19.909103     -30456.032      0             -30435.446      735.54207    
    232000   19.669287     -30456.039      0             -30435.702      730.30758    
    232500   19.806078     -30456.237      0             -30435.758      722.14827    
    233000   20.25581      -30456.226      0             -30435.282      727.94704    
    233500   20.147033     -30456.262      0             -30435.431      723.65542    
    234000   20.128844     -30456.167      0             -30435.355      733.74129    
    234500   20.159196     -30456.186      0             -30435.342      722.42184    
    235000   19.504985     -30456.126      0             -30435.959      727.35378    
    235500   20.083416     -30455.958      0             -30435.193      737.94253    
    236000   19.622779     -30455.954      0             -30435.665      730.37382    
    236500   19.528076     -30455.978      0             -30435.787      739.66686    
    237000   20.08743      -30455.89       0             -30435.12       742.50982    
    237500   19.88256      -30456.308      0             -30435.751      723.98133    
    238000   19.847446     -30456.025      0             -30435.504      734.62624    
    238500   19.904517     -30456.043      0             -30435.463      739.25947    
    239000   19.883577     -30455.944      0             -30435.386      740.42177    
    239500   20.393562     -30456.19       0             -30435.104      732.42517    
    240000   19.699512     -30456.283      0             -30435.915      714.52232    
    240500   20.199279     -30456.222      0             -30435.337      729.83019    
    241000   20.008462     -30456.093      0             -30435.406      726.52427    
    241500   20.013934     -30456.397      0             -30435.704      714.54923    
    242000   20.071038     -30455.954      0             -30435.202      740.69332    
    242500   20.019412     -30456.288      0             -30435.589      716.50004    
    243000   19.888785     -30456.101      0             -30435.537      734.15925    
    243500   19.813229     -30456.254      0             -30435.768      730.10742    
    244000   19.986757     -30455.777      0             -30435.112      751.00021    
    244500   20.230302     -30456.281      0             -30435.363      718.24075    
    245000   20.227491     -30456.4        0             -30435.485      727.3919     
    245500   20.143996     -30456.01       0             -30435.182      733.77541    
    246000   19.546274     -30455.96       0             -30435.75       737.04941    
    246500   20.408095     -30456.018      0             -30434.917      735.20419    
    247000   20.104187     -30456.261      0             -30435.474      727.21828    
    247500   20.047159     -30455.756      0             -30435.028      751.64424    
    248000   19.797535     -30456.114      0             -30435.644      717.99962    
    248500   19.907484     -30455.962      0             -30435.378      746.36686    
    249000   20.311675     -30455.68       0             -30434.679      752.05524    
    249500   20.133342     -30456.325      0             -30435.508      722.66908    
    250000   19.895667     -30455.794      0             -30435.223      746.15228    
    250500   19.883261     -30456.324      0             -30435.766      721.74832    
    251000   20.495317     -30455.922      0             -30434.731      743.39011    
    251500   20.034993     -30455.995      0             -30435.28       734.72424    
    252000   20.156406     -30456.157      0             -30435.316      733.32946    
    252500   19.73384      -30456.057      0             -30435.653      730.04493    
    253000   19.990069     -30456.167      0             -30435.498      721.59758    
    253500   20.055567     -30456.145      0             -30435.409      731.42725    
    254000   19.801444     -30455.963      0             -30435.489      728.93954    
    254500   19.764476     -30455.863      0             -30435.427      734.90374    
    255000   19.663247     -30455.978      0             -30435.648      735.08284    
    255500   19.756514     -30455.922      0             -30435.495      732.19782    
    256000   20.055498     -30456.235      0             -30435.498      732.66827    
    256500   20.309671     -30455.73       0             -30434.731      742.79153    
    257000   20.375075     -30456.074      0             -30435.007      731.20496    
    257500   20.279749     -30456.404      0             -30435.436      721.74328    
    258000   20.084766     -30455.895      0             -30435.128      743.48225    
    258500   19.986592     -30456.202      0             -30435.537      730.54943    
    259000   20.099741     -30456.156      0             -30435.374      733.6873     
    259500   19.671543     -30456.405      0             -30436.066      715.33279    
    260000   20.061387     -30456.155      0             -30435.413      725.18104    
    260500   20.39913      -30456.293      0             -30435.202      729.7182     
    261000   19.917137     -30456.129      0             -30435.536      735.14816    
    261500   19.955341     -30456.07       0             -30435.437      736.05641    
    262000   20.001211     -30456.333      0             -30435.652      726.17361    
    262500   20.023716     -30456.18       0             -30435.476      734.65219    
    263000   20.090259     -30455.997      0             -30435.225      741.29612    
    263500   19.925172     -30456.361      0             -30435.76       721.6744     
    264000   20.270037     -30456.043      0             -30435.084      732.05201    
    264500   19.902726     -30456.143      0             -30435.565      733.51293    
    265000   20.041074     -30456.189      0             -30435.467      724.72055    
    265500   20.046717     -30456.247      0             -30435.52       728.09867    
    266000   20.129414     -30455.835      0             -30435.022      748.94464    
    266500   19.95769      -30456.183      0             -30435.548      726.26743    
    267000   20.163048     -30456.578      0             -30435.731      709.08312    
    267500   20.146804     -30455.734      0             -30434.903      748.92353    
    268000   19.970943     -30456.129      0             -30435.48       721.87818    
    268500   20.079026     -30456.044      0             -30435.283      734.37859    
    269000   20.084364     -30456.108      0             -30435.342      726.36468    
    269500   19.963597     -30455.983      0             -30435.341      740.70115    
    270000   19.74787      -30456.127      0             -30435.709      730.9553     
    270500   19.856186     -30456.137      0             -30435.607      727.93053    
    271000   20.231299     -30456.183      0             -30435.265      729.05921    
    271500   20.058392     -30456.261      0             -30435.522      727.75959    
    272000   20.062801     -30455.829      0             -30435.085      747.96514    
    272500   19.921094     -30456.178      0             -30435.58       731.69701    
    273000   20.217859     -30456.007      0             -30435.103      744.16549    
    273500   20.082925     -30456.377      0             -30435.613      723.23139    
    274000   20.361419     -30455.97       0             -30434.917      746.50068    
    274500   19.978613     -30456.236      0             -30435.579      728.63523    
    275000   19.878405     -30455.927      0             -30435.374      733.80263    
    275500   19.994292     -30456.237      0             -30435.564      727.08524    
    276000   20.440116     -30455.972      0             -30434.838      737.4065     
    276500   19.913135     -30456.105      0             -30435.516      729.73267    
    277000   19.562966     -30455.868      0             -30435.641      736.81711    
    277500   20.098051     -30455.883      0             -30435.103      750.42198    
    278000   19.935084     -30456.077      0             -30435.465      727.05947    
    278500   20.393784     -30456.247      0             -30435.161      719.90413    
    279000   19.463688     -30455.961      0             -30435.837      734.61528    
    279500   19.91297      -30455.778      0             -30435.188      736.75531    
    280000   20.510741     -30455.978      0             -30434.771      735.71534    
    280500   19.759188     -30455.902      0             -30435.472      735.56696    
    281000   19.894158     -30456.191      0             -30435.621      723.13943    
    281500   19.96485      -30455.984      0             -30435.342      743.29332    
    282000   19.983237     -30455.993      0             -30435.331      740.87714    
    282500   20.207678     -30456.013      0             -30435.119      740.63301    
    283000   20.073648     -30456.3        0             -30435.545      729.84148    
    283500   19.864477     -30456.028      0             -30435.489      741.27879    
    284000   20.338754     -30456.123      0             -30435.093      732.15773    
    284500   20.202297     -30456.185      0             -30435.296      725.76468    
    285000   20.385779     -30456.16       0             -30435.082      731.59071    
    285500   19.913573     -30455.968      0             -30435.378      735.43585    
    286000   20.117401     -30456.159      0             -30435.358      724.81996    
    286500   19.941647     -30456.229      0             -30435.61       727.01874    
    287000   20.126319     -30456.317      0             -30435.507      721.265      
    287500   19.7602       -30456.33       0             -30435.898      715.24024    
    288000   19.547331     -30456.121      0             -30435.91       726.70397    
    288500   20.049921     -30456.366      0             -30435.635      723.89567    
    289000   19.792884     -30456.06       0             -30435.595      736.2241     
    289500   20.030026     -30455.99       0             -30435.28       740.95642    
    290000   20.35925      -30456.169      0             -30435.118      727.37542    
    290500   20.070484     -30456.183      0             -30435.431      727.60494    
    291000   19.982985     -30456.162      0             -30435.501      720.25634    
    291500   19.731839     -30456.036      0             -30435.634      728.12214    
    292000   20.323284     -30456.041      0             -30435.027      737.75597    
    292500   20.257893     -30456.044      0             -30435.099      731.02571    
    293000   19.70122      -30455.949      0             -30435.579      729.34466    
    293500   20.350814     -30455.963      0             -30434.921      746.39072    
    294000   19.702405     -30456.259      0             -30435.887      716.43406    
    294500   19.908447     -30456.242      0             -30435.657      718.44033    
    295000   20.058765     -30455.922      0             -30435.182      740.81739    
    295500   20.241675     -30456.1        0             -30435.171      735.51128    
    296000   19.750919     -30456.11       0             -30435.688      729.6908     
    296500   20.132816     -30456.325      0             -30435.508      722.23529    
    297000   20.011192     -30455.92       0             -30435.229      746.87122    
    297500   19.763883     -30456.15       0             -30435.715      723.34726    
    298000   19.887015     -30456.243      0             -30435.681      725.49357    
    298500   19.707665     -30456.249      0             -30435.872      719.94707    
    299000   19.892064     -30456.032      0             -30435.465      731.45608    
    299500   19.702261     -30456.158      0             -30435.787      727.67003    
    300000   19.725618     -30456.395      0             -30436          722.26757    
    300500   19.919474     -30455.796      0             -30435.2        746.15318    
    301000   19.898394     -30456.248      0             -30435.674      728.32518    
    301500   19.803104     -30456.169      0             -30435.693      723.38304    
    302000   20.144235     -30456.406      0             -30435.578      713.21901    
    302500   19.821579     -30455.896      0             -30435.401      733.16363    
    303000   20.191498     -30456.658      0             -30435.781      711.32178    
    303500   20.026929     -30456.085      0             -30435.378      726.12119    
    304000   20.333496     -30455.854      0             -30434.83       745.39208    
    304500   20.168564     -30456.013      0             -30435.159      746.33524    
    305000   19.905157     -30455.925      0             -30435.344      738.30608    
    305500   20.048877     -30456.274      0             -30435.544      715.07014    
    306000   19.884515     -30456.037      0             -30435.477      729.57699    
    306500   19.693883     -30456.054      0             -30435.692      727.98106    
    307000   20.063375     -30455.929      0             -30435.184      738.75266    
    307500   19.811974     -30455.805      0             -30435.32       744.46611    
    308000   20.125589     -30456.378      0             -30435.569      720.62771    
    308500   20.144184     -30456.601      0             -30435.773      711.10365    
    309000   20.21417      -30456.238      0             -30435.337      721.40807    
    309500   19.912339     -30455.83       0             -30435.241      735.76542    
    310000   20.252838     -30456.35       0             -30435.409      718.94811    
    310500   19.844902     -30456.152      0             -30435.633      733.74359    
    311000   20.038911     -30456.011      0             -30435.292      738.84994    
    311500   19.952458     -30456.235      0             -30435.605      735.39864    
    312000   20.231353     -30455.977      0             -30435.059      740.02319    
    312500   19.913006     -30456.228      0             -30435.639      741.77343    
    313000   19.902467     -30456.235      0             -30435.656      721.60978    
    313500   19.947443     -30456.091      0             -30435.466      738.05647    
    314000   20.049056     -30456.211      0             -30435.481      731.11113    
    314500   20.040534     -30456.132      0             -30435.411      728.77822    
    315000   20.133671     -30455.952      0             -30435.135      738.00479    
    315500   19.710224     -30456.39       0             -30436.011      715.50685    
    316000   20.239327     -30456.036      0             -30435.11       732.74315    
    316500   19.755207     -30455.797      0             -30435.371      750.93657    
    317000   20.226862     -30455.99       0             -30435.076      735.18808    
    317500   20.139968     -30455.938      0             -30435.115      732.57606    
    318000   20.024998     -30455.743      0             -30435.038      745.11392    
    318500   20.38717      -30456.069      0             -30434.99       733.13383    
    319000   19.858971     -30456.058      0             -30435.525      732.47575    
    319500   19.862306     -30456.033      0             -30435.497      739.69133    
    320000   20.253894     -30456.617      0             -30435.676      712.9507     
    320500   19.912765     -30455.964      0             -30435.375      741.94377    
    321000   20.054937     -30455.961      0             -30435.225      737.30377    
    321500   19.954761     -30456.142      0             -30435.509      728.788      
    322000   20.064836     -30456.154      0             -30435.408      741.8142     
    322500   20.117896     -30456.224      0             -30435.423      732.75156    
    323000   19.620658     -30456.247      0             -30435.96       718.79732    
    323500   19.934462     -30456.011      0             -30435.399      736.24191    
    324000   20.032939     -30456.089      0             -30435.375      729.16598    
    324500   19.866044     -30456.349      0             -30435.808      715.53736    
    325000   19.739144     -30456.31       0             -30435.901      719.29186    
    325500   19.9083       -30456.091      0             -30435.507      739.48066    
    326000   19.897045     -30455.782      0             -30435.21       746.15329    
    326500   20.059515     -30456.039      0             -30435.299      735.24704    
    327000   19.724196     -30455.777      0             -30435.383      748.00931    
    327500   19.782667     -30456.326      0             -30435.872      716.05387    
    328000   19.914566     -30455.982      0             -30435.391      725.10069    
    328500   19.847044     -30456.168      0             -30435.647      722.62451    
    329000   20.084287     -30456.044      0             -30435.277      734.66127    
    329500   19.829514     -30456.203      0             -30435.7        716.62289    
    330000   19.958973     -30456.01       0             -30435.374      745.51796    
    330500   19.870781     -30456.05       0             -30435.505      730.6862     
    331000   20.16549      -30456.073      0             -30435.222      733.96432    
    331500   19.711051     -30455.931      0             -30435.551      736.08838    
    332000   20.352509     -30456.255      0             -30435.212      726.7796     
    332500   19.731534     -30456.124      0             -30435.723      740.5944     
    333000   20.16132      -30456.255      0             -30435.41       730.64605    
    333500   19.998316     -30455.919      0             -30435.242      736.00558    
    334000   19.941655     -30456.196      0             -30435.578      721.90204    
    334500   19.877165     -30456.043      0             -30435.491      738.7414     
    335000   20.161757     -30455.87       0             -30435.023      742.55118    
    335500   20.246403     -30456.099      0             -30435.165      727.39068    
    336000   20.198891     -30456.176      0             -30435.291      719.98473    
    336500   19.659407     -30456.063      0             -30435.736      729.51739    
    337000   20.211621     -30456.102      0             -30435.204      738.37965    
    337500   19.7732       -30455.956      0             -30435.511      732.50801    
    338000   20.179274     -30456.265      0             -30435.401      729.52379    
    338500   20.043396     -30456.156      0             -30435.432      736.31211    
    339000   19.940331     -30455.813      0             -30435.196      744.999      
    339500   20.006694     -30456.413      0             -30435.727      718.59626    
    340000   19.94601      -30456.304      0             -30435.681      717.93473    
    340500   19.869607     -30456.02       0             -30435.476      734.4628     
    341000   19.582874     -30455.689      0             -30435.441      747.07155    
    341500   20.011353     -30456.194      0             -30435.503      733.34801    
    342000   20.318128     -30456.459      0             -30435.451      723.66085    
    342500   19.703342     -30456.064      0             -30435.692      726.26688    
    343000   20.057341     -30455.736      0             -30434.998      748.28851    
    343500   19.934308     -30455.997      0             -30435.386      745.42246    
    344000   20.063696     -30456.11       0             -30435.365      735.53812    
    344500   19.965048     -30455.991      0             -30435.348      743.23332    
    345000   20.136687     -30455.77       0             -30434.949      753.51336    
    345500   19.892293     -30456.357      0             -30435.79       716.55262    
    346000   19.938269     -30455.557      0             -30434.942      753.41621    
    346500   20.085175     -30456.281      0             -30435.514      730.62532    
    347000   20.183922     -30456.138      0             -30435.268      729.83237    
    347500   20.037622     -30455.78       0             -30435.062      743.41767    
    348000   19.7339       -30456.093      0             -30435.689      731.85509    
    348500   19.885151     -30456.166      0             -30435.605      729.54323    
    349000   19.959457     -30456.098      0             -30435.461      726.75483    
    349500   19.867549     -30456.033      0             -30435.491      730.65814    
    350000   20.209991     -30456.252      0             -30435.356      729.58799    
    350500   19.998015     -30456.1        0             -30435.423      738.66589    
    351000   19.900264     -30456.056      0             -30435.48       740.66103    
    351500   20.100222     -30455.821      0             -30435.039      754.39468    
    352000   19.775914     -30456.514      0             -30436.067      720.32622    
    352500   19.698907     -30456.087      0             -30435.719      737.62995    
    353000   20.085655     -30456.269      0             -30435.501      725.09401    
    353500   19.99963      -30456.107      0             -30435.428      733.07664    
    354000   20.257349     -30456.192      0             -30435.246      724.8538     
    354500   20.14257      -30456.204      0             -30435.378      732.43502    
    355000   19.841906     -30455.99       0             -30435.475      733.58827    
    355500   20.162676     -30456.103      0             -30435.255      728.49643    
    356000   20.012047     -30456.191      0             -30435.499      735.33775    
    356500   19.855495     -30455.833      0             -30435.304      740.81475    
    357000   20.067915     -30456.23       0             -30435.48       721.35915    
    357500   20.094276     -30455.959      0             -30435.183      739.717      
    358000   20.199794     -30456.149      0             -30435.263      729.42977    
    358500   20.165616     -30455.927      0             -30435.077      752.53884    
    359000   19.979199     -30456.064      0             -30435.407      731.07243    
    359500   19.834194     -30455.906      0             -30435.399      726.93792    
    360000   20.214797     -30456.025      0             -30435.124      736.01058    
    360500   20.212517     -30456.421      0             -30435.522      721.61593    
    361000   20.021549     -30456.211      0             -30435.51       740.26549    
    361500   20.024588     -30456.294      0             -30435.589      719.52023    
    362000   20.012622     -30455.932      0             -30435.24       741.73837    
    362500   19.915708     -30456.338      0             -30435.746      718.34465    
    363000   20.255221     -30455.776      0             -30434.833      754.89137    
    363500   19.87384      -30455.784      0             -30435.235      755.71029    
    364000   20.115993     -30456.479      0             -30435.681      729.98387    
    364500   20.173018     -30456.205      0             -30435.347      726.87055    
    365000   19.922305     -30455.736      0             -30435.137      758.04414    
    365500   20.03033      -30455.991      0             -30435.281      738.04223    
    366000   19.95057      -30455.912      0             -30435.284      737.46054    
    366500   19.59717      -30456.386      0             -30436.124      713.50113    
    367000   19.983138     -30456.141      0             -30435.479      736.19096    
    367500   20.014794     -30455.761      0             -30435.067      750.1948     
    368000   20.006542     -30456.325      0             -30435.639      727.03563    
    368500   20.022093     -30456.161      0             -30435.459      722.22827    
    369000   19.822096     -30456.28       0             -30435.785      725.01582    
    369500   19.934776     -30456.503      0             -30435.892      705.25717    
    370000   20.297996     -30456.279      0             -30435.291      730.30432    
    370500   20.080445     -30455.764      0             -30435.001      743.03122    
    371000   20.093804     -30456.325      0             -30435.549      720.12506    
    371500   20.000867     -30455.944      0             -30435.264      747.03724    
    372000   19.805766     -30456.022      0             -30435.543      730.9463     
    372500   20.168448     -30455.789      0             -30434.936      747.48058    
    373000   20.078726     -30456.367      0             -30435.606      724.19872    
    373500   20.034936     -30456.326      0             -30435.611      732.74703    
    374000   20.142079     -30455.805      0             -30434.979      749.37328    
    374500   20.32669      -30455.887      0             -30434.87       749.41871    
    375000   20.310744     -30456.251      0             -30435.25       727.68561    
    375500   19.825072     -30455.986      0             -30435.488      738.3815     
    376000   20.007536     -30456.168      0             -30435.481      731.66454    
    376500   19.97748      -30455.733      0             -30435.077      744.86712    
    377000   19.815136     -30455.952      0             -30435.464      742.3378     
    377500   19.810992     -30455.964      0             -30435.481      735.13215    
    378000   20.309364     -30456.005      0             -30435.006      741.39086    
    378500   20.080003     -30455.95       0             -30435.188      737.24529    
    379000   20.423279     -30456.247      0             -30435.131      744.21634    
    379500   19.915568     -30455.938      0             -30435.346      753.20053    
    380000   20.156098     -30456.292      0             -30435.452      728.8932     
    380500   20.283499     -30455.9        0             -30434.928      745.79162    
    381000   20.082057     -30455.665      0             -30434.901      755.97739    
    381500   20.011348     -30455.947      0             -30435.256      739.95827    
    382000   20.00592      -30456.241      0             -30435.556      738.6146     
    382500   20.001964     -30456.24       0             -30435.559      721.24631    
    383000   19.818514     -30456.007      0             -30435.516      731.41302    
    383500   19.87065      -30456.084      0             -30435.538      735.80989    
    384000   20.198032     -30456.383      0             -30435.499      726.5683     
    384500   19.89644      -30455.999      0             -30435.427      735.91056    
    385000   19.855535     -30456.169      0             -30435.64       727.52565    
    385500   20.164086     -30455.975      0             -30435.126      735.40394    
    386000   19.855997     -30455.889      0             -30435.359      740.37756    
    386500   20.023356     -30456.075      0             -30435.371      732.51221    
    387000   20.147419     -30456.084      0             -30435.253      738.30918    
    387500   20.11366      -30456.059      0             -30435.262      733.41357    
    388000   20.345629     -30456.028      0             -30434.992      734.21242    
    388500   19.80474      -30455.953      0             -30435.476      730.40913    
    389000   20.107976     -30456.073      0             -30435.282      737.84246    
    389500   20.215761     -30455.853      0             -30434.951      742.65224    
    390000   19.710526     -30455.814      0             -30435.435      749.85931    
    390500   20.106342     -30456.225      0             -30435.436      730.92289    
    391000   19.965007     -30456.328      0             -30435.685      727.60897    
    391500   20.098165     -30455.899      0             -30435.118      747.21349    
    392000   19.827452     -30456.17       0             -30435.669      734.10037    
    392500   19.818161     -30455.817      0             -30435.326      752.39817    
    393000   19.954522     -30455.976      0             -30435.344      735.92823    
    393500   19.914666     -30455.941      0             -30435.35       732.60391    
    394000   20.121401     -30456.42       0             -30435.615      722.47619    
    394500   20.331182     -30455.871      0             -30434.85       746.68667    
    395000   19.886268     -30456.373      0             -30435.812      719.57637    
    395500   20.14241      -30456.408      0             -30435.582      724.81464    
    396000   20.001904     -30456.221      0             -30435.54       730.89216    
    396500   19.882524     -30456.212      0             -30435.654      734.69759    
    397000   20.284852     -30455.886      0             -30434.913      743.06791    
    397500   19.928497     -30456.101      0             -30435.496      730.98706    
    398000   19.911409     -30456.081      0             -30435.494      741.17452    
    398500   20.47294      -30456.487      0             -30435.319      717.71016    
    399000   19.640376     -30456.044      0             -30435.736      740.0838     
    399500   20.049853     -30456.074      0             -30435.343      725.80524    
    400000   19.677413     -30456.479      0             -30436.134      704.85488    
    400500   20.060407     -30455.992      0             -30435.25       742.7843     
    401000   19.987914     -30455.852      0             -30435.186      742.25018    
    401500   19.924632     -30456.049      0             -30435.448      733.25914    
    402000   19.484159     -30455.764      0             -30435.619      734.15545    
    402500   20.196819     -30456.156      0             -30435.274      730.08685    
    403000   20.156648     -30455.773      0             -30434.932      742.89443    
    403500   20.299709     -30456.196      0             -30435.207      722.5746     
    404000   20.027609     -30456.3        0             -30435.592      727.96902    
    404500   19.795377     -30455.791      0             -30435.324      750.31262    
    405000   20.140441     -30456.157      0             -30435.332      727.57743    
    405500   19.952409     -30455.922      0             -30435.292      739.01928    
    406000   19.877382     -30456.085      0             -30435.533      730.62867    
    406500   19.836152     -30456.136      0             -30435.626      732.71911    
    407000   20.26434      -30456          0             -30435.048      737.93787    
    407500   20.043207     -30456.347      0             -30435.624      732.84328    
    408000   20.144433     -30455.967      0             -30435.139      736.7288     
    408500   19.745457     -30455.958      0             -30435.543      729.78366    
    409000   20.153116     -30455.943      0             -30435.106      740.65525    
    409500   19.876945     -30456.137      0             -30435.585      724.61654    
    410000   20.037151     -30455.809      0             -30435.092      747.30411    
    410500   20.283593     -30455.71       0             -30434.738      743.98956    
    411000   20.073687     -30456.104      0             -30435.349      734.02701    
    411500   19.882428     -30456.411      0             -30435.853      717.8227     
    412000   20.205095     -30456.201      0             -30435.31       724.74992    
    412500   20.019536     -30456.232      0             -30435.533      729.49966    
    413000   19.947007     -30455.993      0             -30435.369      735.9195     
    413500   19.995718     -30456.288      0             -30435.613      723.67479    
    414000   19.823508     -30456.105      0             -30435.609      726.5858     
    414500   20.032818     -30456.122      0             -30435.409      731.83559    
    415000   19.919452     -30456.364      0             -30435.768      716.52029    
    415500   19.97481      -30456.033      0             -30435.38       743.17203    
    416000   19.868808     -30456.175      0             -30435.632      738.64236    
    416500   20.24425      -30456.176      0             -30435.244      730.43947    
    417000   19.84462      -30456.273      0             -30435.755      715.37079    
    417500   19.837721     -30456.087      0             -30435.576      726.91592    
    418000   20.4721       -30455.998      0             -30434.831      727.52036    
    418500   19.946068     -30455.873      0             -30435.25       742.07627    
    419000   19.853884     -30456.137      0             -30435.609      731.37457    
    419500   19.731089     -30456.058      0             -30435.657      741.64294    
    420000   19.874659     -30455.945      0             -30435.395      734.07122    
    420500   19.893753     -30455.897      0             -30435.328      738.79603    
    421000   20.050216     -30456.292      0             -30435.561      713.55692    
    421500   20.023848     -30455.791      0             -30435.087      740.0267     
    422000   19.947597     -30456.155      0             -30435.53       727.30936    
    422500   20.036423     -30455.835      0             -30435.118      737.44411    
    423000   20.106512     -30456.112      0             -30435.323      725.11936    
    423500   20.157995     -30456.076      0             -30435.234      737.51256    
    424000   20.201251     -30456.27       0             -30435.383      721.39555    
    424500   19.92528      -30455.68       0             -30435.078      748.85262    
    425000   19.824183     -30456.066      0             -30435.569      734.56357    
    425500   20.195058     -30455.893      0             -30435.013      745.10849    
    426000   20.070576     -30456.292      0             -30435.54       723.56935    
    426500   20.138291     -30456.23       0             -30435.408      726.13266    
    427000   20.081887     -30455.823      0             -30435.059      752.2771     
    427500   19.852375     -30455.905      0             -30435.379      744.38687    
    428000   20.082714     -30456.171      0             -30435.406      731.50747    
    428500   20.062209     -30456.105      0             -30435.362      734.992      
    429000   20.390691     -30456.131      0             -30435.048      732.04115    
    429500   20.025927     -30455.93       0             -30435.224      748.21301    
    430000   20.102109     -30456.258      0             -30435.473      726.84823    
    430500   19.920946     -30456.282      0             -30435.685      719.24481    
    431000   19.843488     -30455.936      0             -30435.418      738.17812    
    431500   20.213867     -30456.153      0             -30435.253      727.77684    
    432000   19.575516     -30456.057      0             -30435.816      730.23889    
    432500   20.140545     -30456.226      0             -30435.402      726.22624    
    433000   19.85136      -30456.239      0             -30435.714      721.70045    
    433500   20.017983     -30455.879      0             -30435.181      748.83237    
    434000   19.837463     -30456.357      0             -30435.846      714.56335    
    434500   20.089533     -30455.952      0             -30435.181      733.01732    
    435000   19.990257     -30455.98       0             -30435.311      747.91164    
    435500   20.321928     -30455.847      0             -30434.835      746.46511    
    436000   19.998197     -30456.212      0             -30435.534      731.52015    
    436500   20.293635     -30456.254      0             -30435.271      727.10189    
    437000   19.851606     -30456.029      0             -30435.503      744.34643    
    437500   20.08936      -30456.039      0             -30435.268      737.02914    
    438000   20.207137     -30456.364      0             -30435.471      722.98077    
    438500   20.086308     -30456.101      0             -30435.332      738.12725    
    439000   19.886069     -30456.071      0             -30435.509      742.16575    
    439500   20.036753     -30456.165      0             -30435.448      729.07471    
    440000   20.13014      -30456.099      0             -30435.286      737.80942    
    440500   20.192879     -30455.865      0             -30434.987      751.31049    
[...]
   1892500   20.186888     -30456.518      0             -30435.645      716.94041    
   1893000   20.114575     -30456.007      0             -30435.21       735.15081    
   1893500   19.987741     -30455.855      0             -30435.189      740.16768    
   1894000   19.977859     -30456.184      0             -30435.528      735.0151     
   1894500   20.362389     -30456.04       0             -30434.987      746.16214    
   1895000   20.165876     -30455.731      0             -30434.88       744.8346     
   1895500   19.869088     -30456.049      0             -30435.505      740.57933    
   1896000   20.050459     -30456.044      0             -30435.312      733.30083    
   1896500   20.093139     -30455.901      0             -30435.126      744.89693    
   1897000   19.872598     -30456.308      0             -30435.76       720.19618    
   1897500   20.017807     -30456.201      0             -30435.503      733.66785    
   1898000   20.057838     -30455.851      0             -30435.112      737.79737    
   1898500   20.161566     -30456.106      0             -30435.26       727.22526    
   1899000   19.915252     -30455.986      0             -30435.394      730.48732    
   1899500   19.952254     -30455.817      0             -30435.188      738.19992    
   1900000   19.827003     -30456.005      0             -30435.505      740.42311    
   1900500   20.244316     -30456.078      0             -30435.146      725.4888     
   1901000   19.862403     -30456.195      0             -30435.658      722.2986     
   1901500   20.122466     -30456.339      0             -30435.534      719.07981    
   1902000   19.750964     -30456.215      0             -30435.793      722.84431    
   1902500   19.707059     -30456.205      0             -30435.829      716.16819    
   1903000   20.264501     -30456.126      0             -30435.174      741.78087    
   1903500   19.990146     -30456.322      0             -30435.653      716.7826     
   1904000   19.820534     -30456.507      0             -30436.014      713.65411    
   1904500   20.32039      -30456.195      0             -30435.185      731.78613    
   1905000   20.021026     -30456.056      0             -30435.355      726.19556    
   1905500   20.210874     -30455.991      0             -30435.094      741.71227    
   1906000   20.024829     -30456.219      0             -30435.514      730.50738    
   1906500   20.133691     -30456.314      0             -30435.496      722.87411    
   1907000   20.328145     -30455.97       0             -30434.952      737.25912    
   1907500   20.029018     -30455.85       0             -30435.141      742.50753    
   1908000   19.646854     -30456.387      0             -30436.073      706.12088    
   1908500   19.862962     -30456.27       0             -30435.733      724.80914    
   1909000   19.800822     -30456.114      0             -30435.641      733.33035    
   1909500   19.913466     -30456.258      0             -30435.669      715.9628     
   1910000   19.935699     -30456.321      0             -30435.708      716.85906    
   1910500   20.199973     -30455.939      0             -30435.053      737.6948     
   1911000   19.793094     -30455.914      0             -30435.449      732.73743    
   1911500   19.978539     -30456.186      0             -30435.529      716.97172    
   1912000   19.91486      -30456.114      0             -30435.523      724.47555    
   1912500   19.920517     -30455.995      0             -30435.399      732.109      
   1913000   19.836015     -30455.761      0             -30435.251      740.15333    
   1913500   20.1393       -30455.927      0             -30435.104      742.33254    
   1914000   19.932802     -30456.071      0             -30435.461      732.33521    
   1914500   19.805696     -30455.821      0             -30435.343      745.20328    
   1915000   19.98222      -30456.346      0             -30435.685      717.83157    
   1915500   20.161955     -30456.029      0             -30435.183      730.34285    
   1916000   19.907603     -30456.04       0             -30435.456      727.60538    
   1916500   19.921911     -30456.205      0             -30435.607      719.02665    
   1917000   20.042685     -30456.232      0             -30435.509      726.29197    
   1917500   20.112048     -30456.252      0             -30435.457      719.72406    
   1918000   20.033925     -30455.975      0             -30435.261      736.99324    
   1918500   19.987613     -30456.197      0             -30435.531      724.74941    
   1919000   20.17928      -30456.171      0             -30435.307      729.63165    
   1919500   19.966941     -30455.866      0             -30435.221      732.77798    
   1920000   19.859273     -30456.375      0             -30435.842      717.11018    
   1920500   20.150465     -30456.197      0             -30435.363      731.54343    
   1921000   19.857557     -30456.211      0             -30435.68       731.31049    
   1921500   19.559415     -30456.089      0             -30435.865      731.1511     
   1922000   20.275913     -30456.057      0             -30435.093      740.12727    
   1922500   20.205111     -30456.09       0             -30435.199      728.00586    
   1923000   20.04266      -30455.986      0             -30435.263      745.31722    
   1923500   19.922333     -30455.892      0             -30435.293      740.39159    
   1924000   19.72024      -30456.095      0             -30435.705      737.25963    
   1924500   19.96317      -30456.101      0             -30435.46       740.64386    
   1925000   19.978209     -30455.964      0             -30435.307      745.09584    
   1925500   20.216913     -30455.916      0             -30435.013      742.33246    
   1926000   19.914876     -30456.07       0             -30435.479      735.95736    
   1926500   19.87452      -30455.727      0             -30435.178      746.37805    
   1927000   20.045299     -30456.164      0             -30435.438      727.01055    
   1927500   19.792599     -30456.225      0             -30435.76       720.79995    
   1928000   19.591924     -30455.922      0             -30435.665      726.83156    
   1928500   19.947161     -30456.054      0             -30435.429      722.98702    
   1929000   20.401362     -30456.14       0             -30435.046      727.38199    
   1929500   19.874624     -30456.479      0             -30435.93       703.87398    
   1930000   20.198064     -30456.02       0             -30435.136      736.72042    
   1930500   20.140558     -30456.17       0             -30435.346      724.39653    
   1931000   20.046945     -30456.315      0             -30435.588      720.73083    
   1931500   20.195567     -30456.122      0             -30435.241      731.96923    
   1932000   19.84894      -30456.21       0             -30435.687      713.10251    
   1932500   20.054294     -30455.758      0             -30435.023      741.85118    
   1933000   20.12821      -30456.185      0             -30435.374      732.54297    
   1933500   19.795949     -30455.896      0             -30435.428      741.78967    
   1934000   20.264929     -30455.937      0             -30434.984      743.6866     
   1934500   19.897023     -30456.065      0             -30435.493      727.94663    
   1935000   20.204804     -30456.477      0             -30435.587      726.27154    
   1935500   20.128184     -30455.947      0             -30435.135      737.50383    
   1936000   20.233109     -30456.013      0             -30435.093      736.44484    
   1936500   19.906474     -30456.125      0             -30435.542      728.3264     
   1937000   20.637499     -30455.932      0             -30434.594      743.6218     
   1937500   20.116355     -30455.825      0             -30435.026      756.70106    
   1938000   19.894784     -30456.297      0             -30435.727      717.74513    
   1938500   19.627422     -30456.066      0             -30435.772      733.65232    
   1939000   20.090542     -30456.097      0             -30435.324      725.59825    
   1939500   19.86252      -30456.127      0             -30435.59       730.91152    
   1940000   20.234864     -30456.168      0             -30435.246      730.27507    
   1940500   19.882945     -30456.06       0             -30435.502      736.20315    
   1941000   19.980902     -30456.244      0             -30435.585      728.03413    
   1941500   19.898097     -30456.197      0             -30435.623      723.12136    
   1942000   19.621212     -30456.06       0             -30435.773      725.377      
   1942500   20.02029      -30455.982      0             -30435.282      737.67059    
   1943000   20.040744     -30456.152      0             -30435.431      728.29993    
   1943500   20.077719     -30455.838      0             -30435.079      742.03353    
   1944000   20.04166      -30456.293      0             -30435.571      727.13798    
   1944500   19.835952     -30455.927      0             -30435.418      734.38263    
   1945000   19.844867     -30456.008      0             -30435.489      733.88779    
   1945500   19.993099     -30456.042      0             -30435.37       733.25112    
   1946000   20.135204     -30455.944      0             -30435.125      733.2775     
   1946500   19.968215     -30456.037      0             -30435.391      732.61441    
   1947000   19.708172     -30456.422      0             -30436.045      717.81975    
   1947500   19.851158     -30456.091      0             -30435.565      732.19323    
   1948000   19.929855     -30456.122      0             -30435.516      735.28637    
   1948500   20.254332     -30456.212      0             -30435.27       727.99011    
   1949000   19.936668     -30456.069      0             -30435.455      730.71991    
   1949500   20.165365     -30455.959      0             -30435.109      750.10094    
   1950000   19.893209     -30456.099      0             -30435.531      732.25966    
   1950500   19.886311     -30456.078      0             -30435.517      738.20182    
   1951000   19.833847     -30456.313      0             -30435.805      721.08867    
   1951500   20.105572     -30456.114      0             -30435.326      727.32828    
   1952000   19.893122     -30456.26       0             -30435.691      722.11848    
   1952500   19.716112     -30455.941      0             -30435.556      723.67337    
   1953000   19.969409     -30456.373      0             -30435.725      723.02896    
   1953500   19.99462      -30456.054      0             -30435.381      736.33006    
   1954000   20.065557     -30455.859      0             -30435.112      744.85115    
   1954500   19.937715     -30456.139      0             -30435.524      723.76424    
   1955000   19.920977     -30455.897      0             -30435.3        737.703      
   1955500   19.892184     -30456.387      0             -30435.82       704.42538    
   1956000   19.916559     -30455.988      0             -30435.395      732.90419    
   1956500   19.848132     -30456.315      0             -30435.793      709.52789    
   1957000   19.891929     -30455.89       0             -30435.323      733.05085    
   1957500   20.081166     -30455.964      0             -30435.201      731.95252    
   1958000   19.985619     -30456.033      0             -30435.369      736.3182     
   1958500   20.234748     -30456.015      0             -30435.093      730.46903    
   1959000   20.063807     -30456.028      0             -30435.283      735.2037     
   1959500   20.032476     -30456.364      0             -30435.651      723.4833     
   1960000   19.958851     -30456.159      0             -30435.522      732.46903    
   1960500   19.807743     -30455.921      0             -30435.441      742.96584    
   1961000   20.128961     -30456.167      0             -30435.354      732.14049    
   1961500   20.207561     -30456.479      0             -30435.586      719.5134     
   1962000   20.212436     -30455.988      0             -30435.089      742.24306    
   1962500   20.088104     -30456.147      0             -30435.377      730.66798    
   1963000   20.237717     -30456.227      0             -30435.302      729.02363    
   1963500   20.029566     -30456.135      0             -30435.425      728.58712    
   1964000   20.177544     -30456.39       0             -30435.527      715.88004    
   1964500   19.731775     -30455.798      0             -30435.396      747.12388    
   1965000   20.0079       -30456.017      0             -30435.33       731.77529    
   1965500   19.708292     -30456.449      0             -30436.072      709.58102    
   1966000   20.024243     -30456.208      0             -30435.504      727.60904    
   1966500   19.474821     -30456.148      0             -30436.012      717.24125    
   1967000   20.097966     -30456.219      0             -30435.439      729.93261    
   1967500   20.014364     -30456.18       0             -30435.486      733.58356    
   1968000   20.134253     -30456.173      0             -30435.355      731.44552    
   1968500   20.172361     -30455.985      0             -30435.128      743.27303    
   1969000   20.418455     -30455.965      0             -30434.853      737.31216    
   1969500   19.942707     -30456.118      0             -30435.498      734.49242    
   1970000   20.070663     -30456.19       0             -30435.437      729.33318    
   1970500   19.920216     -30456.102      0             -30435.505      733.84374    
   1971000   19.792494     -30456.323      0             -30435.859      722.28081    
   1971500   20.043436     -30456.025      0             -30435.301      738.83681    
   1972000   20.166592     -30455.94       0             -30435.088      751.23163    
   1972500   19.831105     -30456.129      0             -30435.624      733.07061    
   1973000   19.841252     -30456.495      0             -30435.98       720.8023     
   1973500   19.707899     -30455.907      0             -30435.53       750.11912    
   1974000   19.859884     -30455.957      0             -30435.423      742.61635    
   1974500   20.060742     -30456.445      0             -30435.703      725.46324    
   1975000   20.024698     -30456.111      0             -30435.406      730.23163    
   1975500   19.562806     -30456.063      0             -30435.836      730.7562     
   1976000   20.209622     -30456.365      0             -30435.469      734.11686    
   1976500   20.237214     -30456.051      0             -30435.126      738.52289    
   1977000   19.95661      -30456.02       0             -30435.386      736.70539    
   1977500   20.063006     -30455.835      0             -30435.091      750.54965    
   1978000   20.105687     -30456.105      0             -30435.316      733.27931    
   1978500   19.793121     -30456.437      0             -30435.972      712.49428    
   1979000   20.098297     -30455.912      0             -30435.132      739.2441     
   1979500   20.127027     -30455.961      0             -30435.151      737.6264     
   1980000   20.210753     -30456.132      0             -30435.235      742.39169    
   1980500   19.834402     -30456.202      0             -30435.694      731.74725    
   1981000   20.282384     -30455.949      0             -30434.978      739.2432     
   1981500   20.023869     -30456.233      0             -30435.529      728.3995     
   1982000   19.639259     -30456.065      0             -30435.759      736.74029    
   1982500   19.783839     -30455.792      0             -30435.337      747.64614    
   1983000   19.779747     -30456.171      0             -30435.719      736.54837    
   1983500   19.834851     -30456.175      0             -30435.666      720.64044    
   1984000   19.820139     -30455.885      0             -30435.392      736.60929    
   1984500   19.757089     -30456.091      0             -30435.663      731.90184    
   1985000   20.018175     -30456.193      0             -30435.495      737.53323    
   1985500   19.589231     -30455.985      0             -30435.731      737.03496    
   1986000   20.317837     -30456.068      0             -30435.06       736.36059    
   1986500   20.192329     -30455.984      0             -30435.106      735.98553    
   1987000   19.971673     -30456.05       0             -30435.4        731.63657    
   1987500   20.018256     -30456.221      0             -30435.523      731.95213    
   1988000   20.107228     -30455.958      0             -30435.168      732.00598    
   1988500   20.045248     -30455.909      0             -30435.183      738.43989    
   1989000   19.928283     -30455.873      0             -30435.268      741.32216    
   1989500   19.913117     -30456.175      0             -30435.586      731.97022    
   1990000   19.958858     -30455.937      0             -30435.301      737.66636    
   1990500   20.015487     -30456.227      0             -30435.532      728.61079    
   1991000   19.991767     -30456.098      0             -30435.427      731.42341    
   1991500   20.036611     -30456.178      0             -30435.461      725.21658    
   1992000   20.293314     -30456.027      0             -30435.045      738.17371    
   1992500   20.25396      -30456.1        0             -30435.158      731.79556    
   1993000   20.263913     -30455.974      0             -30435.022      743.57497    
   1993500   19.525047     -30456.176      0             -30435.988      726.12356    
   1994000   19.91795      -30456.139      0             -30435.545      727.54669    
   1994500   19.975234     -30456.331      0             -30435.678      720.46181    
   1995000   19.888222     -30455.826      0             -30435.262      744.39837    
   1995500   19.900006     -30455.969      0             -30435.394      727.38979    
   1996000   19.837778     -30456.211      0             -30435.699      724.64855    
   1996500   20.081845     -30455.898      0             -30435.135      749.24427    
   1997000   19.743918     -30455.905      0             -30435.49       734.78837    
   1997500   19.879765     -30456.255      0             -30435.7        728.1822     
   1998000   20.150222     -30456.315      0             -30435.481      728.08946    
   1998500   19.883276     -30455.922      0             -30435.363      740.98381    
   1999000   20.136997     -30456.171      0             -30435.35       725.88067    
   1999500   20.111911     -30456.222      0             -30435.427      728.41019    
   2000000   20.326597     -30456.162      0             -30435.145      735.25079    
Loop time of 4098.12 on 10 procs for 2000000 steps with 8000 atoms

Performance: 42.166 ns/day, 0.569 hours/ns, 488.029 timesteps/s
97.3% CPU use with 10 MPI tasks x no OpenMP threads

MPI task timing breakdown:
Section |  min time  |  avg time  |  max time  |%varavg| %total
---------------------------------------------------------------
Pair    | 3621.4     | 3637.9     | 3653.7     |  16.5 | 88.77
Neigh   | 5.1302     | 5.2412     | 5.7759     |   9.2 |  0.13
Comm    | 340.19     | 359.06     | 372.25     |  56.2 |  8.76
Output  | 4.4474     | 4.4524     | 4.4834     |   0.5 |  0.11
Modify  | 48.312     | 51.104     | 54.148     |  28.3 |  1.25
Other   |            | 40.38      |            |       |  0.99

Nlocal:            800 ave         832 max         780 min
Histogram: 1 3 1 1 1 1 1 0 0 1
Nghost:         4249.4 ave        4269 max        4217 min
Histogram: 1 0 0 1 1 1 1 1 3 1
Neighs:         100028 ave      104273 max       97790 min
Histogram: 1 3 2 1 0 1 0 1 0 1

Total # of neighbors = 1000277
Ave neighs/atom = 125.03463
Neighbor list builds = 2000
Dangerous builds = 0
Total wall time: 1:08:18
