LAMMPS (23 Jun 2022 - Update 4)
# 3d vashishta

units		metal
atom_style	atomic

boundary        p p p


lattice		custom 1              a1 5.5392  0. 0.              a2 0.0 5.5392  0.0            a3 0.0 0.0 5.5392             basis 0.   0.   0.            basis 0.5  0.5  0.            basis 0.5  0.   0.5            basis 0.   0.5  0.5            basis 0.5  0.   0.             basis 0.   0.5  0.             basis 0.   0.   0.5             basis 0.5  0.5  0.5
Lattice spacing in x,y,z = 5.5392 5.5392 5.5392


region		caixa block 0 10 0 10 0 10
create_box	2 caixa
Created orthogonal box = (0 0 0) to (55.392 55.392 55.392)
  1 by 2 by 5 MPI processor grid
create_atoms	1 region caixa basis 1 1 basis 2 1 basis 3 1 basis 4 1             	  basis 5 2 basis 6 2 basis 7 2 basis 8 2
Created 8000 atoms
  using lattice units in orthogonal box = (0 0 0) to (55.392 55.392 55.392)
  create_atoms CPU = 0.001 seconds

mass		1 137.33
mass		2 15.9994

#velocity	all create 2100. 473204 dist gaussian
velocity        all create 2900. 473204 dist gaussian

group		Ba type 1
4000 atoms in group Ba
group		O type 2
4000 atoms in group O

pair_style	table linear 50000
pair_coeff	1 1 Pot_BaO Vash_11
WARNING: 23463 of 50000 force values in table Vash_11 are inconsistent with -dE/dr.
WARNING:  Should only be flagged at inflection points (../pair_table.cpp:463)
WARNING: 43814 of 50000 distance values in table 1e-06 with relative error
WARNING:  over Vash_11 to re-computed values (../pair_table.cpp:471)
pair_coeff	1 2 Pot_BaO Vash_12
WARNING: 23576 of 50000 force values in table Vash_12 are inconsistent with -dE/dr.
WARNING:  Should only be flagged at inflection points (../pair_table.cpp:463)
WARNING: 43814 of 50000 distance values in table 1e-06 with relative error
WARNING:  over Vash_12 to re-computed values (../pair_table.cpp:471)
pair_coeff	2 2 Pot_BaO Vash_22
WARNING: 23794 of 50000 force values in table Vash_22 are inconsistent with -dE/dr.
WARNING:  Should only be flagged at inflection points (../pair_table.cpp:463)
WARNING: 43814 of 50000 distance values in table 1e-06 with relative error
WARNING:  over Vash_22 to re-computed values (../pair_table.cpp:471)

timestep	0.001   #1.0 fs

thermo		500         # intervalo para mostrar output instantaneos.

neighbor	2.0 bin
neigh_modify	every 8 delay 0 check yes

restart		1000 BaO-nvt.T2100

#fix		ensemble all nve
#fix		ensemble all nvt temp 300 300 0.1 iso 0.0 0.0 0.5 drag 2.0
#fix    ensemble all nvt temp 2100 2100 0.1

fix    ensemble all nvt temp 2900 2900 0.05


run		2000000
Generated 0 of 1 mixed pair_coeff terms from geometric mixing rule
Neighbor list info ...
  update every 8 steps, delay 0 steps, check yes
  max neighbors/atom: 2000, page size: 100000
  master list distance cutoff = 11
  ghost atom cutoff = 11
  binsize = 5.5, bins = 11 11 11
  1 neighbor lists, perpetual/occasional/extra = 1 0 0
  (1) pair table, perpetual
      attributes: half, newton on
      pair build: half/bin/atomonly/newton
      stencil: half/bin/3d
      bin: standard
Per MPI rank memory allocation (min/avg/max) = 3.309 | 3.535 | 3.696 Mbytes
   Step          Temp          E_pair         E_mol          TotEng         Press     
         0   2900          -30477.63       0             -27479.169      18531.611    
       500   2906.4936     -27765.896      0             -24760.721      115349.22    
      1000   2893.184      -27934.93       0             -24943.517      110026.43    
      1500   2881.1479     -27856.395      0             -24877.427      112444.2     
      2000   2919.3455     -27887.466      0             -24869.003      112705.91    
      2500   2935.2014     -27868.781      0             -24833.924      111923.91    
      3000   2900.1695     -27919.136      0             -24920.5        110867.58    
      3500   2915.251      -27857.888      0             -24843.659      113165.55    
      4000   2866.8225     -27844.598      0             -24880.441      112491.25    
      4500   2904.4476     -27885.036      0             -24881.976      111246.38    
      5000   2889.7252     -27860.464      0             -24872.628      112957.49    
      5500   2924.422      -27873.188      0             -24849.476      112800.19    
      6000   2889.7311     -27842.939      0             -24855.096      113252.04    
      6500   2909.2735     -27875.734      0             -24867.685      112212.65    
      7000   2922.1083     -27845.026      0             -24823.707      113797.78    
      7500   2937.7293     -27842.838      0             -24805.368      113212.34    
      8000   2927.029      -27872.565      0             -24846.157      112059.67    
      8500   2954.4529     -27876.96       0             -24822.198      111796.15    
      9000   2920.1296     -27806.813      0             -24787.54       114440.11    
      9500   2880.1858     -27862.706      0             -24884.732      111879.67    
     10000   2937.8144     -27832.097      0             -24794.538      113948.28    
     10500   2896.5428     -27853.088      0             -24858.202      113870.53    
     11000   2920.322      -27881.361      0             -24861.889      112826.16    
     11500   2874.2738     -27886.686      0             -24914.825      111222.82    
     12000   2911.1891     -27846.874      0             -24836.845      113556.57    
     12500   2907.0067     -27855.587      0             -24849.882      112211.71    
     13000   2972.0735     -27833.03       0             -24760.049      114300.08    
     13500   2900.0077     -27818.139      0             -24819.671      113608.48    
     14000   2903.7957     -27875.718      0             -24873.333      111566.77    
     14500   2905.9984     -27814.576      0             -24809.914      114281.45    
     15000   2903.2052     -27883.283      0             -24881.508      111705.51    
     15500   2888.5184     -27897.672      0             -24911.082      111972.72    
     16000   2908.7612     -27849.212      0             -24841.693      113117.48    
     16500   2880.4442     -27871.512      0             -24893.271      111155.87    
     17000   2881.8553     -27824.164      0             -24844.464      113605.08    
     17500   2911.361      -27865.077      0             -24854.869      112490.16    
     18000   2917.463      -27916.158      0             -24899.642      111012.18    
     18500   2877.2714     -27882.561      0             -24907.601      111671.34    
     19000   2929.6491     -27884.159      0             -24855.043      111735.56    
     19500   2899.5394     -27870.914      0             -24872.93       111636.07    
     20000   2887.0761     -27873.557      0             -24888.459      112168.75    
     20500   2937.0667     -27849.178      0             -24812.392      112636.79    
     21000   2851.6951     -27858.929      0             -24910.414      112206.32    
     21500   2907.9841     -27836.459      0             -24829.744      113277.26    
     22000   2903.261      -27854.233      0             -24852.401      113116.29    
     22500   2924.425      -27849.993      0             -24826.278      112997.44    
     23000   2931.2668     -27867.617      0             -24836.829      112950.24    
     23500   2936.8321     -27826.905      0             -24790.362      113842.32    
     24000   2871.6775     -27877.737      0             -24908.561      111470.03    
     24500   2917.5473     -27891.269      0             -24874.665      111436.45    
     25000   2938.6063     -27808.931      0             -24770.553      113593       
     25500   2872.3784     -27879.361      0             -24909.459      112139.09    
     26000   2934.1516     -27857.941      0             -24824.169      113005.88    
     26500   2894.7743     -27843.468      0             -24850.411      113229.98    
     27000   2928.7829     -27872.899      0             -24844.678      112734.28    
     27500   2890.7992     -27845.019      0             -24856.071      113573.43    
     28000   2906.2852     -27874.272      0             -24869.313      112425.45    
     28500   2854.2686     -27876.186      0             -24925.009      111814.71    
     29000   2895.0278     -27800.415      0             -24807.095      114627.83    
     29500   2866.6128     -27882.007      0             -24918.067      111776.4     
     30000   2905.8664     -27854.96       0             -24850.434      113155.29    
     30500   2870.1829     -27872.202      0             -24904.571      112160.78    
     31000   2926.7776     -27862.559      0             -24836.412      112489.53    
     31500   2876.3456     -27862.096      0             -24888.093      112530.66    
     32000   2937.8563     -27832.877      0             -24795.275      113311.97    
     32500   2891.7678     -27880.875      0             -24890.926      112161.59    
     33000   2926.3353     -27842.902      0             -24817.212      112767.15    
     33500   2916.0377     -27853.588      0             -24838.545      111896.74    
     34000   2932.0959     -27867.82       0             -24836.174      113015.57    
     34500   2926.2439     -27867.134      0             -24841.539      112139.19    
     35000   2863.8626     -27874.778      0             -24913.682      111498.32    
     35500   2901.9982     -27830.778      0             -24830.252      113891.27    
     36000   2943.901      -27910.72       0             -24866.868      110716.4     
     36500   2883.6214     -27902.26       0             -24920.735      110609.42    
     37000   2888.3821     -27871.236      0             -24884.788      111738.14    
     37500   2910.8915     -27826.302      0             -24816.58       113565.56    
     38000   2914.4893     -27873.001      0             -24859.559      112180.09    
     38500   2891.4295     -27853.805      0             -24864.206      113495.76    
     39000   2927.8879     -27872.259      0             -24844.964      112823.32    
     39500   2862.3279     -27856.264      0             -24896.755      112531.45    
     40000   2902.1444     -27938.133      0             -24937.455      110169.06    
     40500   2937.2644     -27896.264      0             -24859.274      110791.37    
     41000   2931.4019     -27905.623      0             -24874.694      111275.57    
     41500   2890.4203     -27894.589      0             -24906.034      111407.32    
     42000   2938.3356     -27930.685      0             -24892.587      110211.55    
     42500   2893.049      -27903.537      0             -24912.264      111360.52    
     43000   2891.6482     -27856.03       0             -24866.205      112315.38    
     43500   2939.0374     -27900.625      0             -24861.801      111257.22    
     44000   2887.6042     -27888.592      0             -24902.949      111141.35    
     44500   2976.1727     -27848.453      0             -24771.233      113961.99    
     45000   2893.8674     -27844.101      0             -24851.981      112413.53    
     45500   2902.1397     -27909.382      0             -24908.709      109792.97    
     46000   2899.5508     -27846.08       0             -24848.084      113528.35    
     46500   2852.9688     -27847.39       0             -24897.557      112508.26    
     47000   2915.9772     -27839.851      0             -24824.871      113838.76    
     47500   2887.3809     -27868.051      0             -24882.638      112145.24    
     48000   2886.3591     -27862.366      0             -24878.009      111995.83    
     48500   2904.0955     -27859.409      0             -24856.714      112080.37    
     49000   2863.1246     -27864.692      0             -24904.359      111623.95    
     49500   2924.137      -27843.836      0             -24820.419      113273.36    
     50000   2876.2025     -27898.008      0             -24924.153      111223.59    
     50500   2896.8711     -27855.219      0             -24859.993      111970.3     
     51000   2924.0313     -27845.347      0             -24822.04       112741.61    
     51500   2887.4831     -27910.663      0             -24925.145      109670.72    
     52000   2883.64       -27878.905      0             -24897.36       111931.31    
     52500   2884.2641     -27853.387      0             -24871.197      112274.97    
     53000   2878.1025     -27856.26       0             -24880.441      113790.24    
     53500   2868.9098     -27867.392      0             -24901.078      111654.42    
     54000   2897.4902     -27847.316      0             -24851.451      113133.77    
     54500   2935.32       -27845.568      0             -24810.588      113628.05    
     55000   2864.9868     -27832.13       0             -24869.872      112695.08    
     55500   2860.4842     -27896.034      0             -24938.43       111316.88    
     56000   2893.0901     -27849.952      0             -24858.636      113277.03    
     56500   2925.8684     -27877.657      0             -24852.45       111373.92    
     57000   2908.2184     -27874.755      0             -24867.797      112868.06    
     57500   2867.614      -27871.006      0             -24906.031      112301.09    
     58000   2866.7121     -27876.998      0             -24912.956      112101.14    
     58500   2885.3038     -27845.27       0             -24862.005      113516       
     59000   2898.1738     -27805.461      0             -24808.889      114031.07    
     59500   2916.2959     -27872.569      0             -24857.259      111706.46    
     60000   2873.4457     -27858.916      0             -24887.911      112009.24    
     60500   2860.9633     -27883.223      0             -24925.125      111161.22    
     61000   2897.3342     -27890.317      0             -24894.613      111639.57    
     61500   2870.4821     -27876.918      0             -24908.978      110868.12    
     62000   2881.0846     -27829.993      0             -24851.09       113744.97    
     62500   2909.1773     -27833.396      0             -24825.447      113261.58    
     63000   2926.289      -27831.443      0             -24805.801      112832.51    
     63500   2942.5009     -27853.79       0             -24811.385      113221.79    
     64000   2885.7629     -27870.64       0             -24886.9        112379.48    
     64500   2932.9549     -27881.89       0             -24849.355      112822.86    
     65000   2904.2589     -27874.083      0             -24871.219      111357.61    
     65500   2930.5868     -27837.554      0             -24807.469      113606.1     
     66000   2938.5189     -27848.238      0             -24809.951      113318.61    
     66500   2845.8673     -27846.551      0             -24904.061      112730       
     67000   2885.1772     -27847.143      0             -24864.009      112703.57    
     67500   2902.4358     -27853.411      0             -24852.432      113686.26    
     68000   2889.1873     -27842.532      0             -24855.251      113392.74    
     68500   2914.072      -27882.461      0             -24869.45       111292.42    
     69000   2928.3331     -27861.15       0             -24833.394      112443.59    
     69500   2872.5166     -27843.376      0             -24873.332      112654.31    
     70000   2914.8723     -27856.905      0             -24843.067      112871.66    
     70500   2901.2636     -27831.266      0             -24831.499      112728.44    
     71000   2872.7702     -27872.232      0             -24901.926      112006.84    
     71500   2895.0804     -27888.14       0             -24894.766      111127.26    
     72000   2874.6122     -27846.503      0             -24874.293      112765.77    
     72500   2906.9363     -27871.878      0             -24866.246      112201.71    
     73000   2901.8119     -27845.068      0             -24844.734      113343.05    
     73500   2880.2028     -27850.418      0             -24872.426      112624.52    
     74000   2925.2908     -27881.721      0             -24857.111      112074.71    
     74500   2884.3892     -27883.501      0             -24901.182      111006.54    
     75000   2851.5978     -27883.348      0             -24934.933      111451.42    
     75500   2853.9361     -27807.895      0             -24857.062      114697.36    
     76000   2888.0749     -27846.158      0             -24860.028      113122.63    
     76500   2869.7612     -27847.132      0             -24879.937      112377.39    
     77000   2935.6281     -27879.717      0             -24844.419      112492.71    
     77500   2918.2508     -27855.739      0             -24838.408      112800.46    
     78000   2876.5223     -27848.954      0             -24874.768      112750.87    
     78500   2878.5884     -27860.949      0             -24884.627      112613.01    
     79000   2917.4001     -27869.61       0             -24853.159      111509.02    
     79500   2922.7313     -27889.337      0             -24867.373      112305.06    
     80000   2927.1985     -27878.865      0             -24852.283      112200.01    
     80500   2891.6771     -27812.625      0             -24822.77       114501.69    
     81000   2869.6324     -27875.439      0             -24908.378      111232.25    
     81500   2889.2354     -27830.676      0             -24843.345      113679.87    
     82000   2892.0849     -27858.27       0             -24867.994      113040.21    
     82500   2918.8647     -27863.192      0             -24845.227      112278.78    
     83000   2938.3861     -27835.807      0             -24797.657      113342.41    
     83500   2851.1501     -27827.37       0             -24879.418      112908.32    
     84000   2911.2259     -27889.417      0             -24879.35       111174.3     
     84500   2868.2104     -27854.714      0             -24889.123      112494.8     
     85000   2937.3752     -27873.386      0             -24836.281      112156.62    
     85500   2850.2924     -27803.132      0             -24856.067      113745.02    
     86000   2910.4108     -27858.321      0             -24849.096      112600.63    
     86500   2894.5895     -27858.79       0             -24865.923      112860.66    
     87000   2905.1468     -27841.799      0             -24838.017      112960.83    
     87500   2905.6895     -27818.042      0             -24813.698      113659.43    
     88000   2949.3576     -27824.947      0             -24775.453      114513.45    
     88500   2867.7993     -27865.722      0             -24900.555      111490.41    
     89000   2892.8494     -27804.327      0             -24813.26       114858.93    
     89500   2883.0292     -27853.438      0             -24872.525      112733.87    
     90000   2896.898      -27869.018      0             -24873.765      113067.07    
     90500   2863.4882     -27841.226      0             -24880.517      113069.56    
     91000   2904.3177     -27837.968      0             -24835.044      112336.98    
     91500   2914.479      -27839.454      0             -24826.023      113390.15    
     92000   2920.4631     -27875.579      0             -24855.961      112273.62    
     92500   2885.5223     -27895.049      0             -24911.558      111871.3     
     93000   2890.6696     -27802.637      0             -24813.824      114529.62    
     93500   2920.4228     -27899.999      0             -24880.422      111126.95    
     94000   2913.9656     -27905.924      0             -24893.024      110933.63    
     94500   2931.1626     -27890.777      0             -24860.095      112125.87    
     95000   2930.6574     -27843.713      0             -24813.554      113428.01    
     95500   2873.5914     -27862.374      0             -24891.219      112351.82    
     96000   2921.5903     -27853.683      0             -24832.899      112046       
     96500   2885.6244     -27852.607      0             -24869.01       112968.96    
     97000   2883.4499     -27856.925      0             -24875.576      112425.52    
     97500   2883.2103     -27855.813      0             -24874.712      112745.6     
     98000   2918.938      -27870.573      0             -24852.532      112880.58    
     98500   2853.0656     -27829.841      0             -24879.908      113377.61    
     99000   2889.9733     -27851.467      0             -24863.374      112791.81    
     99500   2837.0562     -27844.777      0             -24911.397      112119.44    
    100000   2905.6852     -27894.883      0             -24890.545      111525.8     
    100500   2911.623      -27867.354      0             -24856.876      111684.89    
    101000   2943.014      -27832.754      0             -24789.819      113148.86    
    101500   2915.7349     -27856.498      0             -24841.768      112431.48    
    102000   2885.037      -27873.116      0             -24890.126      111748.44    
    102500   2902.5545     -27825.805      0             -24824.704      113959.46    
    103000   2910.5686     -27889.827      0             -24880.439      111327.91    
    103500   2914.29       -27875.559      0             -24862.324      112579.79    
    104000   2941.8649     -27835.372      0             -24793.625      114402.11    
    104500   2860.7427     -27875.408      0             -24917.537      112220.36    
    105000   2901.9381     -27846.213      0             -24845.749      113159.88    
    105500   2901.4076     -27877.493      0             -24877.577      111486.5     
    106000   2914.0401     -27848.487      0             -24835.51       113203.92    
    106500   2930.3376     -27877.896      0             -24848.068      112471.82    
    107000   2936.388      -27877.514      0             -24841.43       112570.24    
    107500   2920.1078     -27899.733      0             -24880.482      110674.63    
    108000   2906.7008     -27854.071      0             -24848.682      114125.41    
    108500   2902.9777     -27855.045      0             -24853.506      113472.68    
    109000   2901.9315     -27855.48       0             -24855.023      112645.44    
    109500   2852.7078     -27875.512      0             -24925.95       111238.96    
    110000   2925.4336     -27869.552      0             -24844.795      112450.98    
    110500   2886.2749     -27877.63       0             -24893.361      112397.13    
    111000   2871.7081     -27847.371      0             -24878.163      112636.31    
    111500   2933.0285     -27883.98       0             -24851.369      112282.83    
    112000   2872.4236     -27896.574      0             -24926.626      111194.84    
    112500   2897.6666     -27850.559      0             -24854.511      113029.92    
    113000   2917.8752     -27856.756      0             -24839.814      112579.9     
    113500   2892.3118     -27858.507      0             -24867.996      112405.44    
    114000   2883.4647     -27869.301      0             -24887.937      113060.59    
    114500   2934.0234     -27900.399      0             -24866.76       111768.84    
    115000   2907.1698     -27871.675      0             -24865.801      112618.64    
    115500   2883.6985     -27863.55       0             -24881.944      111993.78    
    116000   2885.5895     -27884.462      0             -24900.901      111598.61    
    116500   2957.1731     -27872.785      0             -24815.21       112821.42    
    117000   2842.1701     -27852.8        0             -24914.133      112367.3     
    117500   2868.791      -27862.319      0             -24896.128      112281.49    
    118000   2933.1612     -27865.918      0             -24833.17       112649.92    
    118500   2908.0836     -27900.793      0             -24893.975      110988.24    
    119000   2911.1465     -27867.579      0             -24857.594      112735.48    
    119500   2894.4492     -27806.622      0             -24813.9        114424.56    
    120000   2916.0821     -27866.798      0             -24851.709      111751.75    
    120500   2839.3736     -27867.062      0             -24931.286      112720.78    
    121000   2924.0473     -27847.054      0             -24823.73       113282.79    
    121500   2884.4503     -27854.777      0             -24872.394      112962.16    
    122000   2885.1944     -27891.036      0             -24907.884      111058.02    
    122500   2939.3469     -27845.38       0             -24806.237      113287.18    
    123000   2901.0548     -27868.573      0             -24869.022      112420.18    
    123500   2891.965      -27834.115      0             -24843.962      113539.72    
    124000   2866.3102     -27863.267      0             -24899.641      111498.03    
    124500   2880.714      -27877.393      0             -24898.873      111680.23    
    125000   2843.382      -27889.725      0             -24949.804      110973.59    
    125500   2870.7366     -27869.757      0             -24901.553      112308.73    
    126000   2898.6728     -27848.945      0             -24851.856      112432.61    
    126500   2885.0552     -27853.938      0             -24870.93       112814.01    
    127000   2954.4182     -27835.995      0             -24781.269      113459.44    
    127500   2893.3677     -27881.367      0             -24889.764      110928.95    
    128000   2856.7015     -27852.468      0             -24898.776      112154.85    
    128500   2915.8185     -27870.915      0             -24856.099      112456.53    
    129000   2921.2285     -27865.451      0             -24845.041      113152.03    
    129500   2895.5061     -27843.722      0             -24849.908      113473.41    
    130000   2925.3204     -27896.773      0             -24872.132      112368.68    
    130500   2898.3956     -27836.587      0             -24839.786      113851.95    
    131000   2913.2872     -27879.413      0             -24867.214      111972.12    
    131500   2935.6378     -27903.104      0             -24867.796      110796.1     
    132000   2910.724      -27841.99       0             -24832.441      113063.41    
    132500   2977.8778     -27882.896      0             -24803.913      112550.24    
    133000   2904.5998     -27864.018      0             -24860.802      112393.96    
    133500   2901.5571     -27868.624      0             -24868.554      112306.49    
    134000   2951.2659     -27837.208      0             -24785.741      113713.33    
    134500   2933.876      -27852.996      0             -24819.509      112413.06    
    135000   2925.6102     -27874.763      0             -24849.823      112133.39    
    135500   2867.6914     -27857.161      0             -24892.106      112465.42    
    136000   2921.117      -27863.974      0             -24843.68       112905       
    136500   2927.5497     -27877.905      0             -24850.959      112153.42    
    137000   2864.0056     -27887.936      0             -24926.692      110680.9     
    137500   2896.525      -27891.952      0             -24897.085      111683.35    
    138000   2898.7284     -27844.909      0             -24847.763      112576.68    
    138500   2937.3249     -27892.841      0             -24855.788      112003.74    
    139000   2905.1744     -27815.101      0             -24811.29       113969.85    
    139500   2883.5059     -27861.886      0             -24880.48       112061.4     
    140000   2864.8575     -27922.859      0             -24960.735      110675.43    
    140500   2943.9106     -27827.239      0             -24783.377      113279.67    
    141000   2874.169      -27844.696      0             -24872.943      112883.96    
    141500   2867.5195     -27888.021      0             -24923.143      111398.19    
    142000   2883.3192     -27854.892      0             -24873.679      111755.07    
    142500   2909.1352     -27861.123      0             -24853.217      111842.53    
    143000   2954.0454     -27845.561      0             -24791.22       113787.18    
    143500   2912.0895     -27850.015      0             -24839.054      112234.65    
    144000   2893.9435     -27862.13       0             -24869.931      113295.42    
    144500   2892.0776     -27856.252      0             -24865.983      112562.83    
    145000   2886.4071     -27876.349      0             -24891.943      111780.98    
    145500   2910.0776     -27848.227      0             -24839.347      113600       
    146000   2888.3103     -27838.239      0             -24851.865      113043.4     
    146500   2856.1892     -27818.112      0             -24864.95       113444.35    
    147000   2884.6085     -27854.646      0             -24872.1        112507.74    
    147500   2909.0403     -27875.579      0             -24867.771      112538.98    
    148000   2937.6417     -27872.189      0             -24834.809      112355.51    
    148500   2902.3743     -27833.149      0             -24832.234      113061.83    
    149000   2869.0394     -27879.472      0             -24913.023      112056.49    
    149500   2922.107      -27886.126      0             -24864.808      112235.96    
    150000   2867.3614     -27855.866      0             -24891.152      112029.89    
    150500   2908.7523     -27828.324      0             -24820.814      112163.71    
    151000   2915.7722     -27846.799      0             -24832.031      112961.26    
    151500   2898.3086     -27871.408      0             -24874.696      112353.33    
    152000   2885.9613     -27883.757      0             -24899.812      111577.83    
    152500   2888.663      -27871.765      0             -24885.026      112647.07    
    153000   2877.113      -27828.472      0             -24853.676      114171.63    
    153500   2894.2939     -27853.297      0             -24860.736      112702.52    
    154000   2861.93       -27858.588      0             -24899.49       112297.93    
    154500   2908.3008     -27855.395      0             -24848.352      112375.69    
    155000   2877.9868     -27859.802      0             -24884.102      111338.75    
    155500   2913.0759     -27830.637      0             -24818.657      114323.64    
    156000   2898.9237     -27881.913      0             -24884.566      112369.96    
    156500   2930.7049     -27826.939      0             -24796.732      112519.79    
    157000   2871.1609     -27901.151      0             -24932.509      110513.4     
    157500   2931.3784     -27871.016      0             -24840.111      112286.48    
    158000   2861.8592     -27892.809      0             -24933.785      111846.18    
    158500   2873.06       -27907.26       0             -24936.654      110415.58    
    159000   2899.9559     -27866.286      0             -24867.871      112185.58    
    159500   2870.3147     -27850.349      0             -24882.582      111910.86    
    160000   2904.6762     -27886.561      0             -24883.266      111755.98    
    160500   2941.0462     -27843.341      0             -24802.441      113168.72    
    161000   2863.8672     -27858.223      0             -24897.122      112871.41    
    161500   2923.2871     -27878.47       0             -24855.931      111698.46    
    162000   2873.3642     -27897.399      0             -24926.479      111059.63    
    162500   2897.6718     -27898.312      0             -24902.259      109866.8     
    163000   2921.553      -27822.43       0             -24801.685      113617.93    
    163500   2885.5804     -27834.789      0             -24851.238      113087.72    
    164000   2930.6302     -27839.228      0             -24809.097      114232.52    
    164500   2877.1644     -27849.453      0             -24874.603      112815.46    
    165000   2901.6018     -27865.862      0             -24865.745      112419.68    
    165500   2868.4538     -27874.033      0             -24908.19       111892.59    
    166000   2928.4857     -27903.133      0             -24875.22       111032.22    
    166500   2953.1914     -27865.264      0             -24811.807      112731.89    
    167000   2869.742      -27864.294      0             -24897.119      112317.72    
    167500   2908.6276     -27889.539      0             -24882.158      111814.56    
    168000   2886.6981     -27854.146      0             -24869.439      112504.64    
    168500   2890.5497     -27870.508      0             -24881.818      112483.77    
    169000   2857.2473     -27841.556      0             -24887.3        113438.42    
    169500   2868.3874     -27831.402      0             -24865.628      113167.78    
    170000   2905.8859     -27828.893      0             -24824.347      113504.39    
    170500   2881.116      -27866.959      0             -24888.023      112384.26    
    171000   2896.2486     -27876.451      0             -24881.87       110997.42    
    171500   2932.8967     -27855.441      0             -24822.966      112388.37    
    172000   2867.6703     -27884.903      0             -24919.869      111524.77    
    172500   2917.7702     -27857.039      0             -24840.204      112699.96    
    173000   2883.3042     -27859.865      0             -24878.667      111963.74    
    173500   2931.8246     -27871.505      0             -24840.14       112045.13    
    174000   2894.7023     -27821.016      0             -24828.033      113359.83    
    174500   2934.0033     -27813.981      0             -24780.363      113649.52    
    175000   2910.155      -27875.906      0             -24866.946      112504.66    
    175500   2906.6163     -27851.76       0             -24846.458      112734.36    
    176000   2849.8779     -27874.178      0             -24927.542      111999.21    
    176500   2880.7432     -27812.237      0             -24833.687      113879.55    
    177000   2877.1904     -27872.291      0             -24897.415      112661.22    
    177500   2867.7162     -27858.396      0             -24893.316      112842.86    
    178000   2883.482      -27912.667      0             -24931.286      110555.43    
    178500   2951.7257     -27887.16       0             -24835.218      111690.92    
    179000   2893.0502     -27870.278      0             -24879.004      112316.88    
    179500   2876.2379     -27858.731      0             -24884.839      112158.16    
    180000   2911.2454     -27864.134      0             -24854.046      112668.54    
    180500   2901.234      -27892.659      0             -24892.923      111091.16    
    181000   2916.3536     -27849.465      0             -24834.096      112917.81    
    181500   2905.7184     -27867.493      0             -24863.119      112334.48    
    182000   2930.6772     -27880.602      0             -24850.422      112404.22    
    182500   2913.8207     -27850.525      0             -24837.775      112496.17    
    183000   2907.5415     -27843.154      0             -24836.896      113538.53    
    183500   2887.6066     -27839.127      0             -24853.48       112609.37    
    184000   2875.2495     -27880.682      0             -24907.813      112661.3     
    184500   2929.1955     -27898.726      0             -24870.078      110687.15    
    185000   2866.6212     -27873.135      0             -24909.187      112280.76    
    185500   2879.1907     -27849.755      0             -24872.811      113528.37    
    186000   2894.8358     -27883.419      0             -24890.298      112088.97    
    186500   2886.6994     -27831.908      0             -24847.2        113556.33    
    187000   2903.9921     -27879.034      0             -24876.446      111868.29    
    187500   2921.5258     -27878.151      0             -24857.434      111781.99    
    188000   2933.8734     -27831.885      0             -24798.401      113723.58    
    188500   2856.2835     -27845.485      0             -24892.226      112885.63    
    189000   2955.0727     -27907.151      0             -24851.748      110806.26    
    189500   2903.2308     -27834.512      0             -24832.711      113461.14    
    190000   2888.5078     -27847.684      0             -24861.106      112571.87    
    190500   2908.5819     -27890.654      0             -24883.32       111934.87    
    191000   2875.8719     -27848.322      0             -24874.809      113078.01    
    191500   2914.901      -27895.91       0             -24882.043      111319.83    
    192000   2951.7989     -27873.336      0             -24821.318      112758.9     
    192500   2915.289      -27856.779      0             -24842.511      112426.33    
    193000   2868.8136     -27871.772      0             -24905.556      111706.9     
    193500   2913.4428     -27866.731      0             -24854.372      112138.29    
    194000   2917.1234     -27871.526      0             -24855.361      111948.84    
    194500   2969.855      -27877.321      0             -24806.634      112440.79    
    195000   2909.5157     -27854.351      0             -24846.051      112370.54    
    195500   2925.6774     -27888.349      0             -24863.339      111078.73    
    196000   2916.3225     -27857.705      0             -24842.367      113520.58    
    196500   2922.5775     -27864.354      0             -24842.549      112497.03    
    197000   2866.8485     -27865.047      0             -24900.864      112293.66    
    197500   2881.1979     -27830.927      0             -24851.907      112875.65    
    198000   2907.2954     -27848.91       0             -24842.907      112881.03    
    198500   2878.6248     -27848.495      0             -24872.136      113148.8     
    199000   2918.8366     -27853.693      0             -24835.756      112565.11    
    199500   2883.1005     -27882.725      0             -24901.738      112096.56    
    200000   2885.7083     -27832.434      0             -24848.751      113444.01    
    200500   2927.8041     -27889.917      0             -24862.709      112298.34    
    201000   2915.1592     -27849.047      0             -24834.913      113340.97    
    201500   2840.9034     -27866.742      0             -24929.385      112233.79    
    202000   2881.3313     -27831.992      0             -24852.834      113292.9     
    202500   2878.0656     -27866.485      0             -24890.704      111744.56    
    203000   2927.231      -27836.976      0             -24810.36       113061.86    
    203500   2874.3767     -27901.244      0             -24929.277      110803.39    
    204000   2923.775      -27919.24       0             -24896.197      110171.17    
    204500   2928.2448     -27896.65       0             -24868.986      111410.79    
    205000   2872.8943     -27833.739      0             -24863.305      112631.27    
    205500   2869.215      -27869.461      0             -24902.83       112973.35    
    206000   2901.8293     -27864.453      0             -24864.102      112212.08    
    206500   2870.0996     -27889.076      0             -24921.531      111695.65    
    207000   2873.691      -27855.83       0             -24884.572      112707.6     
    207500   2870.9209     -27849.789      0             -24881.395      112379.54    
    208000   2903.2439     -27870.6        0             -24868.785      111916.57    
    208500   2903.9785     -27864.705      0             -24862.131      112181.75    
    209000   2904.0464     -27854.031      0             -24851.387      112619.97    
    209500   2896.665      -27849.645      0             -24854.633      112674.16    
    210000   2885.2621     -27805.774      0             -24822.552      113979.17    
    210500   2904.9563     -27899.022      0             -24895.437      111263.83    
    211000   2914.2876     -27873.988      0             -24860.755      112102.23    
    211500   2898.2736     -27893.952      0             -24897.277      111776.87    
    212000   2842.6243     -27844.242      0             -24905.105      112858.35    
    212500   2933.7546     -27878.283      0             -24844.922      112002.91    
    213000   2898.0643     -27865.072      0             -24868.613      112450.4     
    213500   2875.7103     -27846.282      0             -24872.936      112467.74    
    214000   2856.0437     -27867.742      0             -24914.73       112218.01    
    214500   2910.8913     -27866.923      0             -24857.201      112332.12    
    215000   2908.981      -27848.703      0             -24840.956      113357.51    
    215500   2895.6474     -27870.846      0             -24876.886      112397.79    
    216000   2893.079      -27845.581      0             -24854.276      113611.14    
    216500   2905.6123     -27835.201      0             -24830.938      113426.31    
    217000   2933.6921     -27835.876      0             -24802.58       113255.03    
    217500   2898.0153     -27850.985      0             -24854.576      112980.25    
    218000   2873.5228     -27831.233      0             -24860.148      112489.97    
    218500   2938.5958     -27846.395      0             -24808.028      112452.88    
    219000   2912.888      -27914.386      0             -24902.6        110669.08    
    219500   2863.028      -27902.433      0             -24942.199      111871.49    
    220000   2865.1443     -27864.826      0             -24902.404      112414.5     
    220500   2912.8991     -27870.851      0             -24859.053      112390.52    
    221000   2918.1894     -27922.676      0             -24905.409      110425.82    
    221500   2908.5695     -27820.389      0             -24813.068      114396.46    
    222000   2874.5475     -27855.841      0             -24883.697      112000.75    
    222500   2938.4493     -27825.616      0             -24787.401      114638.71    
    223000   2959.9362     -27821.443      0             -24761.012      113632.25    
    223500   2867.8433     -27933.964      0             -24968.752      109293.11    
    224000   2903.5871     -27894.371      0             -24892.201      111414.86    
    224500   2910.142      -27846.754      0             -24837.807      112570.75    
    225000   2899.6112     -27876.373      0             -24878.315      112544.06    
    225500   2913.7179     -27838.764      0             -24826.119      113239.35    
    226000   2889.3209     -27886.86       0             -24899.442      111156.96    
    226500   2908.9647     -27899.576      0             -24891.846      111210.95    
    227000   2902.2372     -27861.039      0             -24860.265      112513.91    
    227500   2852.3386     -27855.803      0             -24906.622      112855.86    
    228000   2920.5422     -27828.381      0             -24808.681      113014.07    
    228500   2917.8072     -27862.823      0             -24845.951      112917.04    
    229000   2887.9665     -27885.843      0             -24899.824      111139.04    
    229500   2901.1161     -27866.689      0             -24867.074      112119.82    
    230000   2852.9934     -27860.977      0             -24911.119      111693.48    
    230500   2950.4365     -27846.707      0             -24796.098      112949.53    
    231000   2903.7853     -27858.67       0             -24856.295      112708.66    
    231500   2922.5824     -27925.88       0             -24904.07       110233.1     
    232000   2900.1588     -27848.363      0             -24849.738      113757.25    
    232500   2906.4501     -27859.836      0             -24854.707      111825.89    
    233000   2870.669      -27867.087      0             -24898.953      112474.96    
    233500   2897.94       -27797.982      0             -24801.651      113819.35    
    234000   2874.5764     -27864.958      0             -24892.784      112081.17    
    234500   2890.8871     -27860.495      0             -24871.457      112031.69    
    235000   2923.1852     -27868.714      0             -24846.281      113235.01    
    235500   2863.1        -27876.362      0             -24916.054      111956.16    
    236000   2911.8069     -27896.289      0             -24885.621      111218.8     
    236500   2928.7051     -27865.26       0             -24837.12       112395.36    
    237000   2912.3182     -27852.696      0             -24841.499      112781.83    
    237500   2910.4138     -27852.235      0             -24843.007      112915.79    
    238000   2952.566      -27867.367      0             -24814.555      111772.84    
    238500   2873.9136     -27874.285      0             -24902.797      111992.47    
    239000   2883.511      -27872.852      0             -24891.44       112171.2     
    239500   2927.6196     -27831.47       0             -24804.452      113510.05    
    240000   2881.5629     -27823.778      0             -24844.381      113800.33    
    240500   2865.971      -27877.855      0             -24914.579      111154.14    
    241000   2909.8596     -27861.035      0             -24852.38       112969.71    
    241500   2917.1727     -27887.485      0             -24871.269      111310.6     
    242000   2920.5963     -27821.278      0             -24801.522      113730.17    
    242500   2884.674      -27885.486      0             -24902.872      111464.65    
    243000   2880.3695     -27866.683      0             -24888.52       111263.72    
    243500   2934.3959     -27860.303      0             -24826.278      111787.34    
    244000   2876.0936     -27880.492      0             -24906.75       112376.27    
    244500   2909.3787     -27851.336      0             -24843.179      112922.51    
    245000   2886.4213     -27882.174      0             -24897.753      111151.53    
    245500   2873.2249     -27831.823      0             -24861.046      113367.03    
    246000   2856.8174     -27851.906      0             -24898.094      112311.87    
    246500   2884.4915     -27866.152      0             -24883.727      111870.22    
    247000   2928.3572     -27862.232      0             -24834.451      112279.82    
    247500   2856.4108     -27858.83       0             -24905.438      112260.7     
    248000   2915.2264     -27877.471      0             -24863.268      112174.37    
    248500   2893.2808     -27815.985      0             -24824.472      114951.09    
    249000   2895.2587     -27884.944      0             -24891.386      111786.13    
    249500   2843.7883     -27861.201      0             -24920.86       111966.52    
    250000   2945.7888     -27865.787      0             -24819.983      112742.6     
    250500   2887.3263     -27902.455      0             -24917.098      111829.95    
    251000   2873.4884     -27883.239      0             -24912.191      111887.39    
    251500   2896.3005     -27846.981      0             -24852.346      112505.34    
    252000   2909.931      -27877.572      0             -24868.843      112914.69    
    252500   2893.4839     -27883.187      0             -24891.464      111302.18    
    253000   2885.8319     -27790.383      0             -24806.572      115203.95    
    253500   2898.2593     -27900.534      0             -24903.873      111317.43    
    254000   2930.5504     -27865.248      0             -24835.199      113098.71    
    254500   2915.8563     -27844.056      0             -24829.2        113331.37    
    255000   2891.7043     -27862.951      0             -24873.068      112709.48    
    255500   2929.8454     -27859.075      0             -24829.755      112536.76    
    256000   2869.806      -27822.872      0             -24855.631      112953.78    
    256500   2870.4604     -27903.757      0             -24935.839      110429.58    
    257000   2899.339      -27903.196      0             -24905.419      111050.95    
    257500   2896.5822     -27888.252      0             -24893.325      111606.59    
    258000   2907.9707     -27842.353      0             -24835.651      113704.74    
    258500   2915.2977     -27935.712      0             -24921.435      110386.92    
    259000   2890.1213     -27833.632      0             -24845.386      113327.75    
    259500   2900.1674     -27905.096      0             -24906.463      111786.95    
    260000   2892.172      -27857.176      0             -24866.809      112629.27    
    260500   2908.8061     -27831.589      0             -24824.023      112815.88    
    261000   2894.3665     -27871.075      0             -24878.439      112421.23    
    261500   2937.9051     -27878.722      0             -24841.07       112294.95    
    262000   2888.5732     -27884.578      0             -24897.932      111443.46    
    262500   2898.4375     -27894.846      0             -24898.001      111914.65    
    263000   2929.4029     -27849.721      0             -24820.859      112808.71    
    263500   2904.2854     -27865.573      0             -24862.681      112340.8     
    264000   2930.4208     -27816.248      0             -24786.334      114034.77    
    264500   2903.4218     -27866.327      0             -24864.328      111847.4     
    265000   2915.7626     -27835.494      0             -24820.735      113632.28    
    265500   2906.2697     -27826.919      0             -24821.976      113588.88    
    266000   2880.013      -27920.489      0             -24942.694      110348.44    
    266500   2944.8255     -27885.391      0             -24840.583      112070.22    
    267000   2891.8795     -27863.895      0             -24873.831      112514.91    
    267500   2863.3998     -27869.719      0             -24909.101      111247.79    
    268000   2954.9622     -27842.556      0             -24787.268      113586.1     
    268500   2926.1521     -27879.755      0             -24854.254      111991.54    
    269000   2859.9874     -27868.199      0             -24911.11       111599.75    
    269500   2909.2265     -27872.514      0             -24864.514      112085.58    
    270000   2899.1351     -27877.456      0             -24879.89       112395.29    
    270500   2905.3064     -27866.36       0             -24862.413      111681.48    
    271000   2873.2817     -27812.263      0             -24841.428      113623.42    
    271500   2957.3244     -27852.571      0             -24794.839      112534.22    
    272000   2899.0202     -27884.459      0             -24887.011      111298.65    
    272500   2946.0108     -27821.526      0             -24775.492      113956.67    
    273000   2883.8961     -27868.526      0             -24886.716      112292.69    
    273500   2935.2559     -27827.218      0             -24792.305      114431.53    
    274000   2909.5094     -27833.96       0             -24825.668      113463.88    
    274500   2902.2354     -27874.153      0             -24873.381      111315.14    
    275000   2921.8996     -27872.029      0             -24850.926      112728.91    
    275500   2863.056      -27903.252      0             -24942.99       111458.53    
    276000   2908.9853     -27875.773      0             -24868.022      112360.74    
    276500   2864.1295     -27832.625      0             -24871.253      114070.68    
    277000   2914.629      -27827.335      0             -24813.749      113717.08    
    277500   2872.9884     -27826.987      0             -24856.456      113264.88    
    278000   2891.8626     -27881.124      0             -24891.077      112046.03    
    278500   2872.3469     -27883.903      0             -24914.034      111533.23    
    279000   2902.4578     -27847.832      0             -24846.831      113182.73    
    279500   2910.455      -27903.142      0             -24893.872      110730.39    
    280000   2901.7816     -27888.222      0             -24887.919      112166.11    
    280500   2889.7296     -27845.304      0             -24857.462      112332.25    
    281000   2927.657      -27882.782      0             -24855.726      112661.54    
    281500   2881.816      -27832.845      0             -24853.186      113906.92    
    282000   2936.5076     -27867.158      0             -24830.95       112253.65    
    282500   2901.255      -27866.035      0             -24866.277      112268.9     
    283000   2879.7595     -27873.479      0             -24895.946      111326.81    
    283500   2863.4125     -27829.708      0             -24869.078      113322.68    
    284000   2844.996      -27861.968      0             -24920.379      113351.62    
    284500   2910.4718     -27832.192      0             -24822.904      113007.78    
    285000   2919.716      -27880.137      0             -24861.291      112368.64    
    285500   2885.6032     -27863.915      0             -24880.341      112338.95    
    286000   2884.5761     -27824.322      0             -24841.809      114279.92    
    286500   2859.8223     -27887.598      0             -24930.68       111545.93    
    287000   2889.9181     -27878.258      0             -24890.221      112115.51    
    287500   2896.9474     -27868.957      0             -24873.652      111660.46    
    288000   2906.9821     -27866.711      0             -24861.031      112612.5     
    288500   2881.1873     -27864.941      0             -24885.932      111634.55    
    289000   2921.3798     -27853.416      0             -24832.85       112558.3     
    289500   2850.7851     -27944.205      0             -24996.63       110049.63    
    290000   2895.9398     -27842.396      0             -24848.133      112365.35    
    290500   2896.6356     -27902.279      0             -24907.297      111347.64    
    291000   2914.5074     -27893.399      0             -24879.938      112240.09    
    291500   2910.4018     -27898.479      0             -24889.264      110993.86    
    292000   2909.7001     -27842.323      0             -24833.833      113221.47    
    292500   2899.8541     -27881.243      0             -24882.934      111732.09    
    293000   2912.3139     -27885.955      0             -24874.762      111031.81    
    293500   2876.096      -27852.307      0             -24878.562      112872.49    
    294000   2892.1393     -27859.277      0             -24868.944      112528.39    
    294500   2919.6583     -27888.269      0             -24869.483      111376.7     
    295000   2898.539      -27864.542      0             -24867.592      112553.71    
    295500   2902.0713     -27877.449      0             -24876.847      111466.94    
    296000   2869.8258     -27866.867      0             -24899.605      112686.41    
    296500   2900.8574     -27869.824      0             -24870.477      112065.98    
    297000   2893.9483     -27843.847      0             -24851.644      112796.21    
    297500   2890.8405     -27830.154      0             -24841.164      113457.2     
    298000   2897.2761     -27895.729      0             -24900.085      110779.71    
    298500   2892.8705     -27886.337      0             -24895.248      110652.89    
    299000   2924.7044     -27904.937      0             -24880.934      111199.8     
    299500   2918.2859     -27854.908      0             -24837.541      112738.67    
    300000   2872.9485     -27865.971      0             -24895.48       112344.6     
    300500   2926.5081     -27881.91       0             -24856.042      111861.15    
    301000   2942.3891     -27852.716      0             -24810.427      113224.96    
    301500   2878.9889     -27901.832      0             -24925.096      111345.01    
    302000   2907.2827     -27848.492      0             -24842.502      112532.74    
    302500   2904.099      -27811.06       0             -24808.362      114325.51    
    303000   2878.114      -27861.147      0             -24885.315      112033.54    
    303500   2900.0143     -27879.185      0             -24880.709      112356.36    
    304000   2914.4212     -27887.983      0             -24874.612      111371.38    
    304500   2906.9766     -27852.839      0             -24847.165      112284.44    
    305000   2918.137      -27839.607      0             -24822.394      113112.92    
    305500   2875.9118     -27824.651      0             -24851.096      113703.3     
    306000   2855.0167     -27837.786      0             -24885.836      112312.11    
    306500   2929.4898     -27883.771      0             -24854.82       110818.22    
    307000   2858.6564     -27883.64       0             -24927.927      111601.54    
    307500   2893.1343     -27838.881      0             -24847.519      111989.33    
    308000   2897.0574     -27857.513      0             -24862.094      112161.56    
    308500   2923.3435     -27902.169      0             -24879.573      112076.86    
    309000   2908.9372     -27836.751      0             -24829.05       113222.79    
    309500   2895.7462     -27856.002      0             -24861.94       113476.64    
    310000   2874.5213     -27851.897      0             -24879.78       113378.47    
    310500   2886.1964     -27852.867      0             -24868.678      113262.11    
    311000   2904.3226     -27872.523      0             -24869.593      112344.09    
    311500   2921.0719     -27835.542      0             -24815.294      113424.37    
    312000   2904.0455     -27830.171      0             -24827.527      113205.22    
    312500   2893.6627     -27853.91       0             -24862.002      113157.36    
    313000   2828.5142     -27881.417      0             -24956.87       111409.36    
    313500   2922.6248     -27864.029      0             -24842.176      112095.02    
    314000   2854.1811     -27858.178      0             -24907.092      112996.52    
    314500   2875.1099     -27827.82       0             -24855.094      113646.17    
    315000   2895.6684     -27823.905      0             -24829.923      112575.47    
    315500   2881.182      -27867.519      0             -24888.515      111667.45    
    316000   2880.5182     -27839.277      0             -24860.959      113199.41    
    316500   2934.3678     -27871.578      0             -24837.583      111630.28    
    317000   2889.3322     -27838.311      0             -24850.88       113833.74    
    317500   2881.7999     -27873.255      0             -24893.612      112791.14    
    318000   2891.2084     -27855.732      0             -24866.361      112253.83    
    318500   2845.7396     -27877.593      0             -24935.235      111133.33    
    319000   2946.4721     -27874.584      0             -24828.074      112366.43    
    319500   2903.0487     -27865.575      0             -24863.963      112355.23    
    320000   2885.8952     -27836.132      0             -24852.255      113536.44    
    320500   2832.8661     -27850.918      0             -24921.87       111921.26    
    321000   2871.8147     -27816.232      0             -24846.914      113082.22    
    321500   2863.5534     -27876.452      0             -24915.675      112542.7     
    322000   2912.2146     -27865.256      0             -24854.166      112069.66    
    322500   2924.7171     -27879.699      0             -24855.682      111969.44    
    323000   2903.8596     -27860.626      0             -24858.175      112466.61    
    323500   2903.6716     -27846.338      0             -24844.081      113120.94    
    324000   2881.5077     -27828.437      0             -24849.097      113891.88    
    324500   2894.3999     -27838.07       0             -24845.399      113678.93    
    325000   2895.1306     -27839.471      0             -24846.045      113813.39    
    325500   2914.1433     -27925.489      0             -24912.405      110587.93    
    326000   2907.7029     -27878.947      0             -24872.522      112502.29    
    326500   2903.0623     -27897.799      0             -24896.173      110740.18    
    327000   2897.5775     -27851.095      0             -24855.139      113536.17    
    327500   2885.6642     -27889.513      0             -24905.875      111416.46    
    328000   2930.9708     -27857.584      0             -24827.101      112118.06    
    328500   2912.0226     -27883.111      0             -24872.219      111532.6     
    329000   2882.6778     -27858.691      0             -24878.141      111926.12    
    329500   2871.7237     -27874.381      0             -24905.157      111921.06    
    330000   2925.7722     -27861.608      0             -24836.501      111793.22    
    330500   2900.3171     -27938.476      0             -24939.688      110588.43    
    331000   2922.3462     -27832.612      0             -24811.047      113076.89    
    331500   2878.9291     -27847.522      0             -24870.848      112315.18    
    332000   2916.4404     -27824.824      0             -24809.365      113835.77    
    332500   2944.3596     -27839.834      0             -24795.508      113830.86    
    333000   2885.5145     -27875.29       0             -24891.807      111658.89    
    333500   2903.667      -27860.679      0             -24858.427      113233.95    
    334000   2900.9455     -27862.667      0             -24863.228      112244.63    
    334500   2899.2581     -27873.103      0             -24875.409      112472.93    
    335000   2846.3264     -27866.189      0             -24923.225      111665.61    
    335500   2865.2356     -27817.663      0             -24855.147      113905.88    
    336000   2847.3234     -27873.042      0             -24929.047      112023.4     
    336500   2907.0086     -27879.504      0             -24873.797      111740.99    
    337000   2869.5872     -27880.061      0             -24913.045      112745.57    
    337500   2917.2413     -27874.22       0             -24857.933      112498.75    
    338000   2845.7931     -27895.311      0             -24952.898      111139.05    
    338500   2898.2358     -27803.141      0             -24806.505      113997.85    
    339000   2909.96       -27850.943      0             -24842.184      113089.51    
    339500   2943.544      -27889.299      0             -24845.816      111937.38    
    340000   2928.5228     -27879.515      0             -24851.563      112118.95    
    340500   2922.1405     -27910.918      0             -24889.565      110942.08    
    341000   2898.6261     -27874.026      0             -24876.986      112032.85    
    341500   2861.4912     -27874.96       0             -24916.316      111801.35    
    342000   2887.2704     -27882.262      0             -24896.963      111077.85    
    342500   2894.1555     -27862.299      0             -24869.882      112547.67    
    343000   2858.7459     -27836.543      0             -24880.738      112878.42    
    343500   2878.2924     -27879.083      0             -24903.067      112039.82    
    344000   2864.5161     -27805.026      0             -24843.254      114524.03    
    344500   2880.8539     -27868.062      0             -24889.397      112422.06    
    345000   2888.9489     -27828.6        0             -24841.565      112736.77    
    345500   2912.1886     -27846.515      0             -24835.452      112188.61    
    346000   2900.3061     -27832.412      0             -24833.635      113340.8     
    346500   2883.7983     -27897.489      0             -24915.78       110741.8     
    347000   2910.0165     -27846.924      0             -24838.107      112901.69    
    347500   2912.0701     -27835.234      0             -24824.294      113775.41    
    348000   2864.1843     -27907.991      0             -24946.562      110759.54    
    348500   2882.588      -27853.796      0             -24873.339      112234.94    
    349000   2911.9402     -27882.573      0             -24871.767      111206.23    
    349500   2910.6066     -27865.345      0             -24855.918      112490.66    
    350000   2899.4505     -27871.887      0             -24873.995      112797.85    
    350500   2888.3804     -27836.145      0             -24849.698      112988.17    
    351000   2907.1443     -27910.348      0             -24904.501      110350.47    
    351500   2920.9196     -27875.417      0             -24855.327      111434.21    
    352000   2841.2221     -27787.228      0             -24849.541      114073.63    
    352500   2884.3745     -27835.644      0             -24853.34       112872.24    
    353000   2828.0249     -27848.697      0             -24924.656      112294.87    
    353500   2838.8299     -27855.377      0             -24920.163      112346.12    
    354000   2900.2498     -27896.331      0             -24897.612      110594.72    
    354500   2876.4394     -27820.888      0             -24846.788      113787.37    
    355000   2857.2982     -27908.335      0             -24954.026      111213.67    
    355500   2902.2975     -27866.088      0             -24865.252      112479.29    
    356000   2867.2986     -27858.832      0             -24894.183      112399.13    
    356500   2898.4507     -27833.905      0             -24837.047      113477.81    
    357000   2866.991      -27884.371      0             -24920.04       111656.67    
    357500   2899.8817     -27866.484      0             -24868.146      111448.14    
    358000   2897.2903     -27820.927      0             -24825.268      113919.88    
    358500   2874.7234     -27869.618      0             -24897.293      111193.29    
    359000   2910.5849     -27834.396      0             -24824.991      113713.59    
    359500   2877.8969     -27872.616      0             -24897.009      111705.57    
    360000   2906.6873     -27841.48       0             -24836.105      112401.69    
    360500   2895.5339     -27852.097      0             -24858.254      113493.61    
    361000   2882.9099     -27873.631      0             -24892.841      112241.63    
    361500   2908.8891     -27834.063      0             -24826.411      113238.33    
    362000   2886.9675     -27843.364      0             -24858.379      113470.47    
    362500   2890.2538     -27846.83       0             -24858.446      113111       
    363000   2880.7002     -27858.589      0             -24880.084      112709.67    
    363500   2856.174      -27868.429      0             -24915.282      112216.44    
    364000   2913.1511     -27847.603      0             -24835.545      112640.36    
    364500   2850.7544     -27873.051      0             -24925.508      111849.48    
    365000   2931.8349     -27859.505      0             -24828.128      112689.49    
    365500   2892.2474     -27902.144      0             -24911.699      110789.82    
    366000   2926.134      -27860.39       0             -24834.908      112273.32    
    366500   2921.2341     -27877.225      0             -24856.809      111870.3     
    367000   2860.9318     -27846.66       0             -24888.595      112472.76    
    367500   2950.2005     -27891.952      0             -24841.586      112886.08    
    368000   2901.1685     -27870.755      0             -24871.086      111103.14    
    368500   2889.7716     -27854.465      0             -24866.58       112578.87    
    369000   2898.1658     -27864.033      0             -24867.469      112939.55    
    369500   2905.1324     -27877.476      0             -24873.709      111403.78    
    370000   2881.5378     -27815.626      0             -24836.255      114368.04    
    370500   2907.8292     -27839.098      0             -24832.543      113295.88    
    371000   2942.3382     -27845.223      0             -24802.987      113107.85    
    371500   2917.569      -27849.402      0             -24832.776      113594.1     
    372000   2908.4342     -27858.636      0             -24851.455      113242.81    
    372500   2894.4892     -27906.251      0             -24913.488      109840.62    
    373000   2926.7911     -27907.647      0             -24881.485      110764.16    
    373500   2888.5574     -27786.763      0             -24800.134      114692.39    
    374000   2901.7334     -27887.861      0             -24887.608      111750.14    
    374500   2889.7912     -27800.727      0             -24812.822      114636.63    
    375000   2920.9171     -27831.957      0             -24811.869      112957       
    375500   2869.6152     -27844.695      0             -24877.651      112714.91    
    376000   2877.8106     -27859.931      0             -24884.413      112325.96    
    376500   2877.4069     -27872.421      0             -24897.321      110838.53    
    377000   2948.2257     -27873.897      0             -24825.573      112903.86    
    377500   2893.1694     -27891.822      0             -24900.424      111551.31    
    378000   2956.5134     -27879.165      0             -24822.272      112493.06    
    378500   2916.6321     -27888.473      0             -24872.816      111716.96    
    379000   2932.2347     -27827.986      0             -24796.196      113313.92    
    379500   2854.5544     -27870.742      0             -24919.27       111389.7     
    380000   2885.3097     -27877.509      0             -24894.238      111972.08    
    380500   2920.4539     -27838.07       0             -24818.461      114114.83    
    381000   2921.1608     -27868.575      0             -24848.235      112548.03    
    381500   2910.6676     -27832.209      0             -24822.719      113635       
    382000   2879.2057     -27876.727      0             -24899.767      111825.35    
    382500   2896.0029     -27886.973      0             -24892.645      111855.21    
    383000   2876.048      -27885.576      0             -24911.881      111937.17    
    383500   2918.2306     -27861.6        0             -24844.29       112511.42    
    384000   2891.4716     -27860.42       0             -24870.777      112184.2     
    384500   2897.5493     -27856.194      0             -24860.267      112876.88    
    385000   2874.4428     -27884.056      0             -24912.02       112062.88    
    385500   2952.5264     -27835.672      0             -24782.901      113392.46    
    386000   2902.2709     -27858.495      0             -24857.687      112578.59    
    386500   2885.9899     -27857.467      0             -24873.492      112732.87    
    387000   2904.0668     -27908.059      0             -24905.393      110939.01    
    387500   2898.0037     -27843.805      0             -24847.408      112475.36    
    388000   2896.149      -27854.469      0             -24859.991      113286.26    
    388500   2864.8288     -27876.14       0             -24914.045      112024.07    
    389000   2892.8155     -27824.927      0             -24833.895      113532.24    
    389500   2901.2429     -27810.613      0             -24810.867      114005.85    
    390000   2877.1659     -27843.91       0             -24869.059      113273.88    
    390500   2890.7359     -27837.459      0             -24848.577      112773.6     
    391000   2936.7954     -27835.556      0             -24799.051      113173.3     
    391500   2896.6252     -27889.805      0             -24894.834      111972.06    
    392000   2902.1155     -27841.31       0             -24840.662      113576.96    
    392500   2867.8987     -27888.301      0             -24923.032      111589.22    
    393000   2908.9995     -27808.965      0             -24801.199      113958.68    
    393500   2889.208      -27866.479      0             -24879.176      112615.93    
    394000   2893.2941     -27860.944      0             -24869.417      112436.36    
    394500   2893.8901     -27835.444      0             -24843.301      114344.14    
    395000   2898.2335     -27874.433      0             -24877.799      111714.55    
    395500   2956.2226     -27871.234      0             -24814.642      112469.27    
    396000   2840.4986     -27841.041      0             -24904.103      112671.36    
    396500   2889.8733     -27877.963      0             -24889.973      111309.54    
    397000   2837.0451     -27841.779      0             -24908.411      112558.89    
    397500   2895.0705     -27838.668      0             -24845.304      112896.22    
    398000   2872.111      -27876.401      0             -24906.776      112400.9     
    398500   2846.4349     -27826.126      0             -24883.049      113957.39    
    399000   2890.2247     -27894.394      0             -24906.041      111034.33    
    399500   2915.8435     -27835.535      0             -24820.694      113515.85    
    400000   2956.4112     -27859.306      0             -24802.519      113391.92    
    400500   2898.7533     -27855.407      0             -24858.236      112979.45    
    401000   2890.1426     -27889.24       0             -24900.972      111315.45    
    401500   2876.921      -27865.454      0             -24890.857      112525.3     
    402000   2866.3708     -27903.579      0             -24939.89       110781.15    
    402500   2899.9307     -27901.289      0             -24902.9        110714.52    
    403000   2875.0333     -27914.782      0             -24942.136      110284.28    
    403500   2859.5791     -27862.029      0             -24905.362      112379.01    
    404000   2882.1599     -27858.16       0             -24878.145      112690.25    
    404500   2871.1541     -27823.246      0             -24854.61       113988.09    
    405000   2890.4199     -27831.552      0             -24842.997      114179.24    
    405500   2957.2165     -27892.865      0             -24835.245      112413.68    
    406000   2856.6103     -27853.221      0             -24899.623      112929.57    
    406500   2893.4613     -27831.095      0             -24839.396      113483.13    
    407000   2895.6751     -27895.931      0             -24901.942      111792.31    
    407500   2877.9546     -27837.586      0             -24861.919      113062.2     
    408000   2887.4703     -27912.615      0             -24927.11       110722.7     
    408500   2889.8426     -27891.943      0             -24903.985      111082.68    
    409000   2929.5818     -27828.796      0             -24799.749      113945.81    
    409500   2937.0548     -27836.357      0             -24799.584      112907.09    
    410000   2902.1503     -27878.907      0             -24878.223      111537.16    
    410500   2874.4679     -27814.077      0             -24842.015      113941.54    
    411000   2923.8151     -27844.399      0             -24821.315      113512.74    
    411500   2907.7316     -27857.858      0             -24851.404      113527.39    
    412000   2908.5418     -27835.118      0             -24827.826      113444.88    
    412500   2920.4921     -27900.821      0             -24881.172      111396.31    
    413000   2928.0378     -27874.081      0             -24846.631      112151.57    
    413500   2874.3509     -27826.726      0             -24854.786      113472.29    
    414000   2890.607      -27883.324      0             -24894.575      111327.1     
    414500   2936.0539     -27866.751      0             -24831.012      111673.65    
    415000   2933.9757     -27872.538      0             -24838.948      112312.31    
    415500   2889.8147     -27862.205      0             -24874.275      112740.01    
    416000   2873.5625     -27840.995      0             -24869.87       112704.05    
    416500   2921.9172     -27873.77       0             -24852.648      112156.75    
    417000   2951.4307     -27890.979      0             -24839.342      111538.57    
    417500   2857.0769     -27856.869      0             -24902.789      112239.48    
    418000   2871.324      -27895.945      0             -24927.134      111186.29    
    418500   2912.2207     -27832.119      0             -24821.023      113289.4     
    419000   2889.722      -27874.05       0             -24886.216      111992.31    
    419500   2895.8995     -27901.962      0             -24907.742      110641.41    
    420000   2879.0586     -27820.238      0             -24843.43       114275.39    
    420500   2898.6632     -27859.787      0             -24862.708      112513.06    
    421000   2913.7649     -27902.278      0             -24889.586      111482.99    
    421500   2933.0722     -27821.689      0             -24789.034      114208.69    
    422000   2899.1991     -27827.043      0             -24829.411      113557.84    
    422500   2932.6472     -27895.415      0             -24863.199      111225.62    
    423000   2886.5926     -27783.177      0             -24798.579      115046.46    
    423500   2912.7291     -27858.341      0             -24846.719      112472.39    
    424000   2861.5258     -27863.815      0             -24905.135      112072.37    
    424500   2930.4681     -27869.369      0             -24839.406      112620.97    
    425000   2909.7217     -27875.162      0             -24866.65       111571.67    
    425500   2871.2887     -27860.954      0             -24892.18       112235.37    
    426000   2940.3095     -27863.781      0             -24823.643      113023.49    
    426500   2900.0101     -27850.868      0             -24852.397      112912.57    
    427000   2871.1771     -27850.899      0             -24882.24       113050.53    
    427500   2884.8548     -27819.844      0             -24837.043      113528.7     
    428000   2867.3945     -27905.084      0             -24940.336      111300.5     
    428500   2889.3793     -27851.233      0             -24863.754      113656.58    
    429000   2896.9648     -27862.642      0             -24867.32       112135.46    
    429500   2903.2839     -27851.405      0             -24849.549      113272.16    
    430000   2871.6366     -27840.136      0             -24871.002      113010.1     
    430500   2863.5554     -27856.063      0             -24895.284      113003.73    
    431000   2936.8845     -27875.554      0             -24838.957      112347.08    
    431500   2881.7808     -27836.428      0             -24856.805      112716.35    
    432000   2891.0648     -27852.262      0             -24863.04       112283.37    
    432500   2854.13       -27876.635      0             -24925.601      111714.62    
    433000   2912.9836     -27878.436      0             -24866.551      111630.15    
    433500   2875.6562     -27870.155      0             -24896.865      112214.26    
    434000   2930.1918     -27862.581      0             -24832.904      113141.29    
    434500   2913.8261     -27827.154      0             -24814.398      113380.75    
    435000   2955.1988     -27888.975      0             -24833.441      111774.65    
    435500   2920.5342     -27855.788      0             -24836.096      113227.78    
    436000   2897.4896     -27860.424      0             -24864.559      113114.38    
    436500   2922.9873     -27881.548      0             -24859.319      112678.74    
    437000   2928.3732     -27846.599      0             -24818.802      113446.98    
    437500   2877.8217     -27885.322      0             -24909.793      110974.04    
    438000   2867.4461     -27857.634      0             -24892.833      111593.76    
    438500   2897.162      -27801.718      0             -24806.192      114491.48    
    439000   2928.2844     -27860.921      0             -24833.216      112358.9     
    439500   2924.0479     -27832.459      0             -24809.134      113635.27    
    440000   2888.8891     -27837.746      0             -24850.774      113411.19    
    440500   2902.5637     -27819.966      0             -24818.855      113402.02    
[...]
   1892500   2941.1976     -27816.834      0             -24775.778      113462.37    
   1893000   2889.6549     -27865.763      0             -24877.999      111858.61    
   1893500   2893.6676     -27884.671      0             -24892.758      112082.22    
   1894000   2920.6946     -27901.104      0             -24881.247      111429.04    
   1894500   2887.6756     -27848.517      0             -24862.8        113517.58    
   1895000   2886.7781     -27880.436      0             -24895.646      111886.59    
   1895500   2897.7846     -27850.784      0             -24854.614      112906.08    
   1896000   2899.3392     -27912.452      0             -24914.675      111360.51    
   1896500   2928.3271     -27858.556      0             -24830.807      112349.53    
   1897000   2886.0202     -27853.023      0             -24869.017      111858.76    
   1897500   2869.2916     -27880.173      0             -24913.464      111520.37    
   1898000   2899.0259     -27875.551      0             -24878.097      111678.71    
   1898500   2925.6583     -27869.414      0             -24844.424      112383.72    
   1899000   2901.5496     -27820.64       0             -24820.578      113501.79    
   1899500   2924.7329     -27883.502      0             -24859.468      111992.07    
   1900000   2900.5761     -27825.984      0             -24826.928      114055.35    
   1900500   2862.7284     -27871.92       0             -24911.996      112325.97    
   1901000   2933.7905     -27865.508      0             -24832.11       111289.62    
   1901500   2920.1192     -27867.088      0             -24847.825      113011.1     
   1902000   2859.7181     -27869.341      0             -24912.53       112307.05    
   1902500   2894.3856     -27855.551      0             -24862.895      112351.76    
   1903000   2896.3351     -27906.107      0             -24911.436      111121.74    
   1903500   2932.0405     -27842.923      0             -24811.334      113272.77    
   1904000   2876.0093     -27854.6        0             -24880.944      112719.23    
   1904500   2849.0255     -27906.399      0             -24960.644      110921.51    
   1905000   2896.951      -27845.5        0             -24850.192      112746.87    
   1905500   2881.8991     -27899.481      0             -24919.736      111364.12    
   1906000   2923.0846     -27837.256      0             -24814.927      114230.66    
   1906500   2937.2712     -27897.375      0             -24860.378      111904.23    
   1907000   2917.6841     -27866.745      0             -24850          112450.07    
   1907500   2899.8292     -27860.187      0             -24861.903      112327.39    
   1908000   2928.8765     -27834.209      0             -24805.891      113979.75    
   1908500   2864.0693     -27860.372      0             -24899.063      111503.13    
   1909000   2918.1877     -27895.071      0             -24877.805      111887.61    
   1909500   2901.9267     -27874.479      0             -24874.027      112869.46    
   1910000   2864.5586     -27786.268      0             -24824.453      114789.72    
   1910500   2921.817      -27878.009      0             -24856.991      111944.46    
   1911000   2981.5946     -27897.34       0             -24814.514      111768.04    
   1911500   2882.7667     -27858.648      0             -24878.005      111613.89    
   1912000   2913.5712     -27878.413      0             -24865.921      111019.02    
   1912500   2913.8506     -27886.795      0             -24874.013      111511.83    
   1913000   2913.776      -27863.921      0             -24851.217      112233.68    
   1913500   2885.1128     -27863.121      0             -24880.053      112087.25    
   1914000   2900.488      -27824.8        0             -24825.834      114581.5     
   1914500   2880.4808     -27881.153      0             -24902.874      111854.74    
   1915000   2927.77       -27831.868      0             -24804.695      113876.62    
   1915500   2899.7031     -27842.111      0             -24843.957      112678.44    
   1916000   2940.9399     -27894.962      0             -24854.171      110853.21    
   1916500   2891.1641     -27826.083      0             -24836.759      113753.71    
   1917000   2877.1972     -27884.745      0             -24909.861      111226.46    
   1917500   2918.1875     -27848.302      0             -24831.036      113129.29    
   1918000   2930.8889     -27893.675      0             -24863.277      111906.14    
   1918500   2905.1633     -27875.608      0             -24871.809      112551.66    
   1919000   2911.4138     -27873.944      0             -24863.682      112285.87    
   1919500   2859.0014     -27833.692      0             -24877.622      112392.77    
   1920000   2917.9135     -27875.118      0             -24858.135      111703.49    
   1920500   2894.5959     -27863.094      0             -24870.221      111784.83    
   1921000   2901.3831     -27853.96       0             -24854.07       113108.3     
   1921500   2896.3721     -27866.764      0             -24872.055      112310.3     
   1922000   2882.1347     -27844.749      0             -24864.76       112996.23    
   1922500   2925.9243     -27872.872      0             -24847.607      111572.63    
   1923000   2890.6121     -27829.9        0             -24841.146      113548.98    
   1923500   2902.3537     -27873.875      0             -24872.981      112134.18    
   1924000   2921.6385     -27874.879      0             -24854.046      111947.11    
   1924500   2879.9322     -27859.538      0             -24881.827      112384.23    
   1925000   2883.615      -27858.699      0             -24877.18       112299.78    
   1925500   2957.6725     -27867.485      0             -24809.394      112553.57    
   1926000   2853.049      -27885.714      0             -24935.798      111031.94    
   1926500   2852.633      -27861.287      0             -24911.801      112303.23    
   1927000   2855.372      -27889.17       0             -24936.853      111006.3     
   1927500   2896.3691     -27853.525      0             -24858.818      112714.88    
   1928000   2873.6881     -27801.749      0             -24830.494      113925.4     
   1928500   2923.1472     -27838.124      0             -24815.731      113327.4     
   1929000   2928.1823     -27847.256      0             -24819.657      113670.81    
   1929500   2937.512      -27870.72       0             -24833.474      112680.9     
   1930000   2851.3626     -27882.296      0             -24934.124      111657.19    
   1930500   2912.054      -27863.55       0             -24852.626      112534.79    
   1931000   2864.4075     -27878.189      0             -24916.529      112042.89    
   1931500   2887.5817     -27841.077      0             -24855.456      113300.05    
   1932000   2827.7538     -27867.959      0             -24944.198      112109.04    
   1932500   2868.3285     -27901.84       0             -24936.127      110781.09    
   1933000   2841.9111     -27871.309      0             -24932.91       111471.5     
   1933500   2904.6257     -27854.031      0             -24850.787      113035.82    
   1934000   2886.0458     -27897.185      0             -24913.152      111715.93    
   1934500   2893.4231     -27856.433      0             -24864.773      112697.44    
   1935000   2882.3965     -27859.93       0             -24879.67       111800.65    
   1935500   2860.849      -27857.252      0             -24899.272      112321.95    
   1936000   2889.045      -27852.924      0             -24865.791      112323.79    
   1936500   2922.0887     -27872.96       0             -24851.661      112297.18    
   1937000   2877.7444     -27832.425      0             -24856.976      113853.24    
   1937500   2912.0586     -27871.313      0             -24860.385      111929.07    
   1938000   2938.8531     -27847.621      0             -24808.988      113048.19    
   1938500   2865.106      -27874.601      0             -24912.219      111811.37    
   1939000   2899.1941     -27832.648      0             -24835.021      113979.37    
   1939500   2866.923      -27870.201      0             -24905.94       111166.85    
   1940000   2977.6138     -27875.357      0             -24796.648      113123.79    
   1940500   2913.6795     -27903.75       0             -24891.146      112274.93    
   1941000   2866.5752     -27890.037      0             -24926.136      110632.13    
   1941500   2895.8631     -27871.571      0             -24877.388      112021.44    
   1942000   2881.0115     -27890.775      0             -24911.948      110912.68    
   1942500   2915.2637     -27896.95       0             -24882.708      111332.81    
   1943000   2922.1826     -27854.005      0             -24832.609      112295.66    
   1943500   2898.5414     -27892.171      0             -24895.219      111023.13    
   1944000   2907.771      -27850.735      0             -24844.24       112431.64    
   1944500   2897.933      -27803.042      0             -24806.719      114576.46    
   1945000   2930.03       -27850.981      0             -24821.471      112600.56    
   1945500   2838.4209     -27829.574      0             -24894.783      112629.17    
   1946000   2903.3652     -27841.042      0             -24839.102      112991.76    
   1946500   2912.856      -27893.053      0             -24881.3        110689.04    
   1947000   2896.9896     -27876.919      0             -24881.571      112467.69    
   1947500   2872.3121     -27843.651      0             -24873.819      113152.21    
   1948000   2859.4705     -27849.806      0             -24893.252      112490.23    
   1948500   2927.1593     -27862.092      0             -24835.55       113405.66    
   1949000   2912.9686     -27851.428      0             -24839.559      112219.4     
   1949500   2909.3217     -27867.34       0             -24859.241      112555.16    
   1950000   2879.9262     -27861.898      0             -24884.192      112581.08    
   1950500   2875.0067     -27892.75       0             -24920.131      111295.95    
   1951000   2896.9272     -27861.655      0             -24866.371      112198.25    
   1951500   2917.3019     -27878.216      0             -24861.866      112554.54    
   1952000   2929.2567     -27892.063      0             -24863.352      112103.33    
   1952500   2910.0075     -27914.866      0             -24906.059      111101.4     
   1953000   2919.7773     -27831.407      0             -24812.497      113316.43    
   1953500   2924.6323     -27897.438      0             -24873.509      111922.09    
   1954000   2857.581      -27831.8        0             -24877.198      113145.08    
   1954500   2916.1313     -27849.541      0             -24834.401      112937.48    
   1955000   2929.7726     -27859.3        0             -24830.056      112222.88    
   1955500   2956.7808     -27843.762      0             -24786.593      113315.2     
   1956000   2856.1062     -27841.598      0             -24888.522      113131.79    
   1956500   2908.0858     -27877.13       0             -24870.309      111928.54    
   1957000   2895.2262     -27897.699      0             -24904.175      111606.47    
   1957500   2859.5562     -27844.494      0             -24887.851      112217.91    
   1958000   2909.8716     -27876.453      0             -24867.786      112215.11    
   1958500   2923.243      -27853.216      0             -24830.723      112672.97    
   1959000   2858.322      -27854.213      0             -24898.845      112182.16    
   1959500   2940.1647     -27844.676      0             -24804.688      113276.81    
   1960000   2936.2736     -27873.142      0             -24837.177      111836.57    
   1960500   2942.9851     -27838.447      0             -24795.542      112781.49    
   1961000   2902.9226     -27896.885      0             -24895.403      111120.67    
   1961500   2893.6775     -27859.359      0             -24867.436      112423.71    
   1962000   2908.3038     -27855.452      0             -24848.406      112951.1     
   1962500   2969.9122     -27872.568      0             -24801.822      111646.43    
   1963000   2903.9542     -27835.062      0             -24832.513      113105.2     
   1963500   2915.4157     -27847.567      0             -24833.167      112304.19    
   1964000   2939.5149     -27883.752      0             -24844.435      111847.76    
   1964500   2907.6018     -27895.734      0             -24889.414      110983.86    
   1965000   2888.2358     -27880.92       0             -24894.623      111004.47    
   1965500   2917.2664     -27867.368      0             -24851.055      112412.22    
   1966000   2897.9456     -27860.419      0             -24864.082      112738.4     
   1966500   2905.7483     -27854.791      0             -24850.388      113171.03    
   1967000   2905.83       -27862.323      0             -24857.835      112618.79    
   1967500   2839.4593     -27879.769      0             -24943.905      111703.8     
   1968000   2932.6063     -27866.101      0             -24833.927      112613.14    
   1968500   2899.3839     -27858.691      0             -24860.868      111705.24    
   1969000   2903.7936     -27833.636      0             -24831.253      113457.79    
   1969500   2901.1606     -27859.433      0             -24859.772      113017.97    
   1970000   2913.9957     -27878.657      0             -24865.726      112058.87    
   1970500   2904.051      -27829.502      0             -24826.853      113276.77    
   1971000   2850.7098     -27830.592      0             -24883.095      113325.49    
   1971500   2890.9608     -27910.74       0             -24921.625      110075.2     
   1972000   2888.4316     -27825.855      0             -24839.356      112715.61    
   1972500   2895.1232     -27881.467      0             -24888.049      111610.3     
   1973000   2860.1518     -27826.057      0             -24868.798      112330.15    
   1973500   2890.4325     -27902.426      0             -24913.858      110662.65    
   1974000   2878.9753     -27839.636      0             -24862.914      112626.74    
   1974500   2924.2623     -27880.372      0             -24856.825      112080.96    
   1975000   2868.0954     -27874.124      0             -24908.651      111553.07    
   1975500   2932.0623     -27850.624      0             -24819.013      113501.18    
   1976000   2868.9586     -27834.473      0             -24868.108      113710.99    
   1976500   2920.4883     -27865.866      0             -24846.222      112397.97    
   1977000   2868.7129     -27835.463      0             -24869.351      113324.37    
   1977500   2893.0266     -27860.568      0             -24869.317      113206.96    
   1978000   2902.4186     -27907.81       0             -24906.848      111014.02    
   1978500   2860.4287     -27879.813      0             -24922.268      112035.83    
   1979000   2891.4195     -27879.788      0             -24890.199      112046.84    
   1979500   2902.5931     -27881.342      0             -24880.2        111168.33    
   1980000   2924.4002     -27840.949      0             -24817.259      113387.24    
   1980500   2870.4625     -27872.628      0             -24904.708      111941.01    
   1981000   2882.5657     -27885.169      0             -24904.735      111125.69    
   1981500   2923.7696     -27885.517      0             -24862.48       111304.64    
   1982000   2916.4486     -27880.016      0             -24864.548      111971.37    
   1982500   2880.6907     -27853.579      0             -24875.083      112588.46    
   1983000   2856.5086     -27905.554      0             -24952.062      110912.78    
   1983500   2929.257      -27854.163      0             -24825.452      112853.04    
   1984000   2924.1782     -27882.61       0             -24859.15       112612.45    
   1984500   2925.0322     -27869.415      0             -24845.072      111883.96    
   1985000   2929.7105     -27888.274      0             -24859.094      111578.91    
   1985500   2848.1809     -27916.638      0             -24971.756      110493.24    
   1986000   2889.5073     -27848.947      0             -24861.336      112885.73    
   1986500   2870.7328     -27856.355      0             -24888.155      113052.97    
   1987000   2845.4941     -27851.182      0             -24909.078      112792.01    
   1987500   2934.2904     -27843.042      0             -24809.127      113552.11    
   1988000   2924.8869     -27881.549      0             -24857.357      112023.66    
   1988500   2901.2439     -27859.652      0             -24859.905      113654.08    
   1989000   2908.8553     -27843.738      0             -24836.122      113076.87    
   1989500   2897.3506     -27874.078      0             -24878.357      111338.92    
   1990000   2904.162      -27846.052      0             -24843.288      112909.29    
   1990500   2859.4089     -27856.546      0             -24900.055      112632.17    
   1991000   2894.6466     -27884.173      0             -24891.248      111356.66    
   1991500   2879.5683     -27893.962      0             -24916.627      111304.09    
   1992000   2903.3226     -27867.483      0             -24865.587      112969.6     
   1992500   2879.5416     -27830.549      0             -24853.242      113597.58    
   1993000   2911.7377     -27901.826      0             -24891.229      111562.32    
   1993500   2915.9537     -27898.703      0             -24883.747      111181.96    
   1994000   2895.3227     -27888.552      0             -24894.928      111893.51    
   1994500   2918.8406     -27888.343      0             -24870.403      111957.7     
   1995000   2898.9219     -27851.299      0             -24853.953      113147.63    
   1995500   2952.0846     -27888.353      0             -24836.04       111978.81    
   1996000   2901.7657     -27854.42       0             -24854.134      111980.02    
   1996500   2913.6415     -27887.505      0             -24874.94       111580.67    
   1997000   2898.7178     -27870.841      0             -24873.707      112156.86    
   1997500   2852.6644     -27871.809      0             -24922.291      112460.8     
   1998000   2957.1333     -27899.481      0             -24841.948      111858.18    
   1998500   2885.5659     -27848.773      0             -24865.236      112572.67    
   1999000   2952.3208     -27821.955      0             -24769.397      114143.34    
   1999500   2898.756      -27875.642      0             -24878.468      111487.03    
   2000000   2911.8743     -27848.614      0             -24837.876      113973.4     
Loop time of 6155.04 on 10 procs for 2000000 steps with 8000 atoms

Performance: 28.075 ns/day, 0.855 hours/ns, 324.937 timesteps/s
97.6% CPU use with 10 MPI tasks x no OpenMP threads

MPI task timing breakdown:
Section |  min time  |  avg time  |  max time  |%varavg| %total
---------------------------------------------------------------
Pair    | 5154.3     | 5215.1     | 5333.7     |  73.2 | 84.73
Neigh   | 254.08     | 255.77     | 258        |   7.0 |  4.16
Comm    | 453        | 572.95     | 638.98     | 225.8 |  9.31
Output  | 2.3553     | 2.3625     | 2.4185     |   1.2 |  0.04
Modify  | 57.424     | 61.75      | 67.402     |  43.0 |  1.00
Other   |            | 47.12      |            |       |  0.77

Nlocal:            800 ave         823 max         780 min
Histogram: 1 1 1 1 1 1 3 0 0 1
Nghost:         5010.4 ave        5046 max        4965 min
Histogram: 1 1 1 1 0 0 1 2 1 2
Neighs:         102797 ave      106161 max      100224 min
Histogram: 1 2 1 0 1 3 1 0 0 1

Total # of neighbors = 1027968
Ave neighs/atom = 128.496
Neighbor list builds = 84148
Dangerous builds = 0
Total wall time: 1:42:35
